/*--------------------------------*- C++ -*----------------------------------*\
| =========                 |                                                 |
| \\      /  F ield         | OpenFOAM: The Open Source CFD Toolbox           |
|  \\    /   O peration     | Version:  2406                                  |
|   \\  /    A nd           | Website:  www.openfoam.com                      |
|    \\/     M anipulation  |                                                 |
\*---------------------------------------------------------------------------*/
FoamFile
{
    version     2.0;
    format      ascii;
    arch        "LSB;label=32;scalar=64";
    class       volScalarField;
    location    "200";
    object      epsilon;
}
// * * * * * * * * * * * * * * * * * * * * * * * * * * * * * * * * * * * * * //

dimensions      [0 2 -3 0 0 0 0];

internalField   nonuniform List<scalar> 
12225
(
1085.71
2467.78
3645.44
4414.75
4812.15
4980.51
4972.16
4932.35
4837.78
4728.39
4620.54
4517.2
4425.56
4339.59
4269.12
4198.54
4151.1
4085.51
81.2296
262.521
438.551
584.508
691.142
762.896
804.75
829.92
846.86
856.762
866.65
873.627
883.041
890.867
900.628
909.972
918.734
932.93
20.5774
51.1734
83.4741
112.529
136.933
156.186
170.163
179.882
186.391
190.772
193.496
195.612
196.858
198.396
199.266
201.068
201.272
206.409
14.7578
21.8684
30.0215
38.4985
46.2195
53.0347
58.6255
63.2599
66.758
69.6438
71.614
73.3301
74.3207
75.3315
75.7526
76.3716
76.3247
77.5727
14.361
16.3337
18.457
21.4861
24.4396
27.261
29.7371
31.9826
33.819
35.4791
36.7448
37.9273
38.7442
39.5739
40.059
40.6376
40.8999
41.3633
14.6446
14.9541
15.4277
16.456
17.6093
18.8287
19.9699
21.0768
22.0336
22.9483
23.6894
24.4158
24.956
25.5271
25.8929
26.3461
26.5741
26.9648
14.7184
14.6387
14.6738
14.8757
15.2176
15.6833
16.1628
16.6724
17.1382
17.6109
18.0103
18.4208
18.7384
19.0878
19.3213
19.6207
19.7826
20.0613
14.7545
14.5907
14.4691
14.4209
14.4418
14.5153
14.6476
14.8246
15.0022
15.2023
15.3792
15.576
15.7326
15.9149
16.0401
16.2064
16.3001
16.4674
14.7641
14.5919
14.4345
14.3029
14.2031
14.1371
14.0973
14.0987
14.1107
14.1415
14.1783
14.2346
14.2793
14.3426
14.3854
14.4488
14.488
14.5556
14.7656
14.5942
14.4321
14.2828
14.1466
14.0296
13.9256
13.8437
13.7744
13.7224
13.6772
13.6482
13.6204
13.6063
13.5893
13.5832
13.5736
13.582
14.7657
14.5945
14.4323
14.2806
14.137
14.0051
13.8816
13.7705
13.6679
13.5777
13.4939
13.4219
13.3537
13.2972
13.2407
13.1973
13.1474
13.1179
14.7657
14.5944
14.4323
14.2801
14.1357
14.0007
13.8728
13.754
13.6417
13.5386
13.441
13.3523
13.2677
13.1922
13.1185
13.0549
12.9896
12.9369
14.7657
14.5941
14.4321
14.2797
14.1353
13.9995
13.8707
13.7497
13.6347
13.5271
13.4248
13.3294
13.2384
13.1542
13.0732
12.9991
12.9267
12.8616
14.7657
14.594
14.4319
14.2792
14.1349
13.9987
13.8698
13.7481
13.6326
13.5237
13.4201
13.3224
13.2294
13.1418
13.0582
12.9796
12.9043
12.8337
14.7657
14.5938
14.4317
14.2789
14.1345
13.9981
13.8691
13.7471
13.6316
13.5221
13.4183
13.32
13.2265
13.1379
13.0536
12.9737
12.8975
12.8253
14.7657
14.5938
14.4316
14.2786
14.1341
13.9976
13.8685
13.7463
13.6307
13.5211
13.4171
13.3185
13.2249
13.1361
13.0516
12.9713
12.8949
12.8222
14.7657
14.5937
14.4315
14.2784
14.1338
13.9972
13.868
13.7457
13.6299
13.5202
13.4162
13.3174
13.2237
13.1347
13.0501
12.9697
12.8931
12.8203
14.7657
14.5937
14.4314
14.2783
14.1336
13.9969
13.8677
13.7453
13.6294
13.5196
13.4155
13.3167
13.2228
13.1337
13.049
12.9685
12.8919
12.819
14.7657
14.5937
14.4314
14.2782
14.1336
13.9969
13.8675
13.7452
13.6292
13.5194
13.4152
13.3163
13.2224
13.1333
13.0485
12.968
12.8913
12.8184
14.7657
14.5937
14.4315
14.2783
14.1337
13.997
13.8677
13.7453
13.6294
13.5196
13.4154
13.3166
13.2227
13.1336
13.0489
12.9683
12.8917
12.8188
14.7657
14.5937
14.4316
14.2785
14.1339
13.9973
13.8681
13.7457
13.63
13.5202
13.4163
13.3176
13.2241
13.1352
13.051
12.9708
12.8948
12.8224
14.7657
14.5938
14.4317
14.2786
14.1343
13.9978
13.869
13.7473
13.6325
13.524
13.4219
13.3252
13.2344
13.1483
13.0676
12.9907
12.9192
12.8504
14.7657
14.5937
14.4319
14.2789
14.1361
14.0021
13.8782
13.7629
13.6573
13.5595
13.4707
13.3883
13.3141
13.2446
13.1829
13.1237
13.0729
13.0213
14.7644
14.5922
14.4335
14.2871
14.1628
14.0551
13.9689
13.8978
13.8459
13.8048
13.7783
13.758
13.7482
13.7416
13.7423
13.7433
13.7529
13.7516
14.7478
14.5944
14.4764
14.4101
14.4234
14.4613
14.5554
14.6706
14.817
14.9613
15.1238
15.2712
15.432
15.5684
15.7197
15.8374
15.9783
16.0722
14.6504
14.7821
14.9369
15.3416
15.9227
16.5509
17.2339
17.8781
18.5378
19.1218
19.7129
20.2097
20.7202
21.1251
21.5591
21.876
22.2458
22.4812
14.572
16.1273
17.9726
20.4197
22.9236
25.2655
27.5469
29.5527
31.4908
33.1028
34.686
35.9143
37.1763
38.0665
39.0619
39.6737
40.4624
40.854
16.5442
25.8796
36.7209
46.5547
55.866
64.2736
72.1019
78.7417
84.8028
89.5915
94.0145
97.1765
100.315
102.192
104.455
105.418
107.137
107.494
45.7966
105.211
164.44
217.234
267.844
313.451
353.661
386.106
413.223
433.656
450.595
462.702
472.892
479.772
486.815
490.304
496.152
497.487
632.343
1081.16
1534.74
1880.99
2183.47
2431.76
2631.52
2773.01
2876.13
2932.18
2969.03
2970.12
2963.1
2946.16
2918.23
2884.97
2849.15
2811.81
0.42953
0.421322
0.705417
0.989071
1.24151
1.45356
1.63779
1.81284
1.97741
2.13846
2.30416
2.48327
2.68801
2.94054
3.25578
3.62447
4.03787
4.49611
5.00311
5.56563
6.19
6.8836
7.65205
8.50208
9.43862
10.4691
11.6002
12.8301
14.1558
15.58
17.1023
18.7265
20.4525
22.2842
24.2208
26.2671
28.4224
30.6959
33.0944
35.6364
38.34
41.241
44.2922
47.4906
50.8373
54.3433
58.0068
61.8389
65.8384
70.0163
74.3711
78.9141
83.6434
88.5709
93.694
99.0248
104.56
110.311
116.275
122.463
128.87
135.509
142.372
149.473
156.802
164.372
172.173
180.217
188.492
197.01
205.758
214.745
223.958
233.406
243.072
252.964
263.064
273.38
283.891
294.605
305.498
316.576
327.814
339.217
350.756
362.434
374.221
386.117
398.092
410.137
422.224
434.326
446.414
458.458
470.426
482.286
494.017
505.623
517.174
528.633
539.925
551.053
561.992
572.72
583.212
593.446
603.395
613.036
622.344
631.295
639.864
648.026
655.759
663.038
669.842
676.149
681.939
687.192
691.892
696.022
699.571
702.53
704.897
706.665
707.834
708.381
708.207
707.302
705.934
704.113
701.52
698.373
694.637
690.342
685.51
680.164
674.332
668.04
661.311
654.182
646.718
638.956
630.936
622.698
614.282
605.728
597.078
588.371
579.648
570.947
562.308
553.766
545.361
537.123
529.086
521.28
513.736
506.475
499.526
492.905
486.632
480.72
475.19
470.039
465.306
461.297
460.229
460.355
460.372
460.814
461.694
462.961
464.57
466.427
468.453
470.592
472.588
473.716
472.743
453.625
1.67998
0.933174
0.828343
0.860193
0.942589
1.05255
1.18336
1.33338
1.49989
1.68288
1.88401
2.10622
2.3533
2.62967
2.93798
3.27841
3.65069
4.05581
4.49526
4.97114
5.48508
6.03883
6.63338
7.26994
7.94902
8.67156
9.43752
10.2466
11.0984
11.9954
12.939
13.9296
14.9652
16.0468
17.1756
18.3539
19.5833
20.8672
22.2084
23.611
25.0769
26.6078
28.1998
29.8553
31.5753
33.3626
35.2178
37.1436
39.1409
41.2122
43.3581
45.5813
47.8821
50.2632
52.7248
55.2693
57.8967
60.6093
63.4068
66.2913
69.2623
72.3215
75.4683
78.7041
82.0278
85.4405
88.9407
92.5293
96.2043
99.9663
103.813
107.744
111.757
115.851
120.023
124.272
128.595
132.989
137.45
141.977
146.565
151.21
155.908
160.654
165.443
170.27
175.128
180.011
184.911
189.823
194.736
199.641
204.527
209.388
214.215
219.007
223.769
228.521
233.304
238.123
242.871
247.555
252.166
256.695
261.131
265.467
269.693
273.8
277.777
281.617
285.308
288.842
292.21
295.402
298.409
301.223
303.836
306.239
308.426
310.39
312.125
313.628
314.893
315.918
316.696
317.216
317.45
317.426
317.193
316.74
315.998
315.012
313.783
312.32
310.631
308.725
306.611
304.301
301.806
299.141
296.325
293.373
290.301
287.124
283.859
280.522
277.13
273.699
270.247
266.788
263.34
259.918
256.539
253.216
249.966
246.8
243.733
240.776
237.941
235.238
232.677
230.265
228.015
225.931
224.04
222.448
221.602
221.063
220.633
220.408
220.31
220.405
220.654
221.026
221.503
222.056
222.624
223.238
223.571
223.202
3.25582
1.54909
1.2473
1.20064
1.24137
1.32908
1.45071
1.60199
1.78089
1.98641
2.21806
2.47572
2.75954
3.06979
3.40654
3.76963
4.15894
4.57487
5.01806
5.48951
5.9901
6.52083
7.0825
7.67606
8.3024
8.96281
9.65888
10.39
11.1525
11.9429
12.7649
13.6242
14.5219
15.4597
16.4386
17.4605
18.5265
19.6383
20.7969
22.0037
23.2593
24.5646
25.92
27.3273
28.7883
30.3036
31.8739
33.5008
35.1852
36.9283
38.7312
40.5949
42.5204
44.5087
46.5606
48.677
50.8584
53.1057
55.4193
57.7999
60.2477
62.7632
65.3465
67.9978
70.7168
73.5038
76.3581
79.2796
82.2676
85.3215
88.4403
91.6232
94.8688
98.176
101.543
104.968
108.449
111.985
115.572
119.209
122.892
126.619
130.386
134.19
138.027
141.893
145.784
149.696
153.623
157.562
161.506
165.452
169.394
173.328
177.253
181.168
185.075
188.978
192.88
196.762
200.599
204.387
208.118
211.785
215.381
218.898
222.33
225.669
228.907
232.036
235.05
237.94
240.699
243.319
245.794
248.115
250.277
252.274
254.097
255.744
257.207
258.484
259.569
260.46
261.152
261.641
261.888
261.95
261.837
261.524
260.999
260.277
259.36
258.256
256.97
255.509
253.881
252.094
250.159
248.087
245.891
243.583
241.174
238.679
236.109
233.478
230.798
228.083
225.346
222.6
219.857
217.131
214.434
211.777
209.172
206.631
204.162
201.777
199.484
197.292
195.209
193.241
191.398
189.684
188.115
186.737
185.684
184.834
184.113
183.527
183.058
182.711
182.47
182.324
182.277
182.29
182.318
182.55
182.922
183.9
4.74253
2.15134
1.70157
1.60437
1.6226
1.70349
1.82788
1.98831
2.18144
2.40539
2.6587
2.93995
3.24773
3.58075
3.93787
4.3183
4.72159
5.14785
5.59749
6.0713
6.57011
7.09493
7.64663
8.22611
8.83403
9.47084
10.1363
10.8317
11.5603
12.3257
13.1287
13.9687
14.8464
15.763
16.7196
17.7175
18.7582
19.8431
20.9721
22.1459
23.365
24.6298
25.9406
27.2968
28.702
30.1579
31.6656
33.2264
34.8411
36.5109
38.2367
40.0197
41.8606
43.7606
45.7203
47.7407
49.8222
51.9657
54.1716
56.4406
58.7731
61.1696
63.6303
66.1555
68.7453
71.3996
74.1184
76.9015
79.7485
82.6588
85.6319
88.667
91.763
94.9189
98.1334
101.405
104.732
108.112
111.544
115.025
118.553
122.125
125.738
129.389
133.075
136.792
140.537
144.305
148.093
151.898
155.714
159.538
163.366
167.195
171.022
174.844
178.661
182.47
186.263
190.027
193.751
197.429
201.054
204.618
208.115
211.537
214.878
218.129
221.284
224.335
227.275
230.096
232.792
235.354
237.776
240.05
242.171
244.132
245.927
247.549
248.995
250.26
251.339
252.229
252.926
253.428
253.701
253.79
253.705
253.421
252.94
252.267
251.407
250.365
249.148
247.76
246.21
244.507
242.659
240.677
238.573
236.358
234.044
231.642
229.166
226.627
224.038
221.412
218.759
216.094
213.428
210.773
208.14
205.541
202.986
200.485
198.049
195.686
193.405
191.214
189.119
187.127
185.242
183.472
181.823
180.319
179.01
177.86
176.834
175.921
175.112
174.401
173.781
173.243
172.775
172.365
172.041
171.951
172.121
172.862
6.03806
2.74161
2.16124
2.02138
2.02069
2.09487
2.21941
2.38399
2.58378
2.81597
3.07842
3.36919
3.68636
4.0282
4.39326
4.78056
5.1896
5.62041
6.07341
6.54937
7.04923
7.57406
8.12493
8.70294
9.3091
9.94449
10.6102
11.3077
12.0388
12.805
13.6073
14.4463
15.3228
16.2379
17.1923
18.1871
19.2228
20.3001
21.4203
22.5847
23.7943
25.05
26.3533
27.7062
29.1093
30.5635
32.0695
33.6287
35.242
36.9107
38.6358
40.4186
42.26
44.1613
46.1237
48.1482
50.2352
52.3856
54.6002
56.8798
59.225
61.6366
64.1149
66.6606
69.274
71.9553
74.7048
77.5223
80.4078
83.3611
86.3818
89.4691
92.6225
95.841
99.1235
102.469
105.875
109.34
112.863
116.441
120.072
123.754
127.483
131.256
135.07
138.922
142.807
146.723
150.665
154.63
158.613
162.61
166.616
170.628
174.641
178.65
182.651
186.637
190.6
194.531
198.423
202.267
206.057
209.786
213.445
217.027
220.525
223.931
227.237
230.435
233.518
236.478
239.307
241.997
244.542
246.935
249.167
251.232
253.125
254.839
256.369
257.709
258.856
259.806
260.555
261.101
261.415
261.528
261.458
261.179
260.697
260.015
259.139
258.073
256.823
255.395
253.796
252.037
250.125
248.071
245.888
243.585
241.177
238.673
236.088
233.434
230.722
227.967
225.18
222.374
219.56
216.752
213.961
211.197
208.472
205.796
203.177
200.626
198.15
195.756
193.451
191.24
189.129
187.12
185.221
183.442
181.805
180.299
178.906
177.617
176.423
175.319
174.298
173.358
172.492
171.704
171.027
170.577
170.414
170.701
7.15674
3.29588
2.60428
2.42411
2.40588
2.47132
2.59233
2.75605
2.95623
3.18927
3.45261
3.74412
4.06185
4.40412
4.76955
5.15725
5.56676
5.99813
6.45178
6.92847
7.42916
7.95495
8.50697
9.08642
9.69449
10.3324
11.0014
11.7029
12.438
13.2081
14.0141
14.857
15.7377
16.6573
17.6166
18.6168
19.6586
20.7433
21.8719
23.0458
24.2661
25.534
26.8509
28.2182
29.6371
31.1086
32.6341
34.2149
35.8522
37.5474
39.3018
41.1167
42.9935
44.9334
46.9375
49.0069
51.1433
53.3478
55.6217
57.9661
60.3819
62.8703
65.4321
68.0681
70.7791
73.5655
76.4279
79.3667
82.3819
85.4736
88.6416
91.8856
95.205
98.599
102.067
105.607
109.217
112.897
116.645
120.457
124.331
128.265
132.256
136.3
140.394
144.534
148.716
152.936
157.189
161.471
165.778
170.103
174.442
178.79
183.14
187.486
191.822
196.139
200.43
204.687
208.902
213.067
217.174
221.215
225.182
229.065
232.858
236.552
240.137
243.606
246.951
250.163
253.233
256.154
258.918
261.516
263.942
266.188
268.248
270.114
271.782
273.246
274.5
275.541
276.366
276.972
277.335
277.474
277.41
277.123
276.617
275.895
274.964
273.827
272.49
270.96
269.246
267.355
265.298
263.086
260.73
258.242
255.636
252.924
250.118
247.233
244.282
241.277
238.232
235.16
232.074
228.985
225.907
222.85
219.826
216.844
213.915
211.047
208.248
205.526
202.887
200.336
197.878
195.517
193.257
191.103
189.066
187.143
185.326
183.608
181.981
180.442
178.986
177.612
176.322
175.128
174.062
173.219
172.633
172.373
8.69371
3.90968
3.04636
2.80721
2.7639
2.81542
2.92852
3.08707
3.28314
3.5123
3.77161
4.05887
4.37227
4.7103
5.0718
5.45602
5.86261
6.29165
6.74354
7.219
7.71893
8.2444
8.79652
9.3765
9.98554
10.6249
11.2958
11.9994
12.737
13.5098
14.3188
15.1652
16.0501
16.9744
17.9395
18.9464
19.9963
21.0905
22.2302
23.4169
24.6519
25.9367
27.2727
28.6614
30.1042
31.6027
33.1584
34.7729
36.4477
38.1844
39.9849
41.8506
43.7832
45.7844
47.8559
49.9992
52.2161
54.5083
56.8772
59.3246
61.8519
64.4603
67.1514
69.9261
72.7858
75.7313
78.7634
81.8829
85.0901
88.3855
91.7689
95.2404
98.7996
102.446
106.178
109.995
113.895
117.877
121.938
126.077
130.289
134.573
138.925
143.341
147.817
152.349
156.932
161.561
166.232
170.938
175.675
180.436
185.214
190.003
194.796
199.585
204.362
209.118
213.846
218.536
223.179
227.768
232.292
236.743
241.112
245.39
249.566
253.633
257.58
261.398
265.078
268.611
271.988
275.201
278.239
281.096
283.763
286.232
288.496
290.548
292.382
293.992
295.372
296.518
297.427
298.096
298.505
298.664
298.596
298.285
297.734
296.946
295.928
294.684
293.22
291.544
289.664
287.589
285.33
282.897
280.304
277.564
274.689
271.693
268.591
265.396
262.122
258.784
255.395
251.97
248.521
245.061
241.604
238.161
234.743
231.362
228.027
224.747
221.531
218.385
215.318
212.333
209.437
206.632
203.923
201.313
198.807
196.407
194.108
191.905
189.796
187.778
185.848
184.009
182.266
180.637
179.152
177.887
176.846
176.04
10.692
4.58717
3.48278
3.16256
3.08483
3.11679
3.21798
3.36808
3.5571
3.77961
4.03223
4.31267
4.6192
4.95053
5.30567
5.68404
6.0854
6.50983
6.95774
7.42979
7.9268
8.44979
8.99981
9.57803
10.1856
10.8238
11.4939
12.197
12.9345
13.7075
14.5173
15.3652
16.2523
17.1799
18.1493
19.162
20.2193
21.3226
22.4734
23.6734
24.9242
26.2275
27.585
28.9984
30.4696
32.0004
33.5926
35.2482
36.9691
38.7574
40.6152
42.5445
44.5473
46.626
48.7824
51.0189
53.3376
55.7405
58.2298
60.8076
63.4757
66.2361
69.0905
72.0407
75.0882
78.2344
81.4804
84.8274
88.2761
91.8272
95.4809
99.2374
103.096
107.057
111.119
115.281
119.541
123.897
128.347
132.889
137.518
142.233
147.028
151.899
156.843
161.852
166.924
172.05
177.226
182.445
187.7
192.984
198.289
203.606
208.927
214.244
219.547
224.827
230.073
235.277
240.427
245.516
250.531
255.464
260.303
265.039
269.66
274.158
278.521
282.738
286.801
290.699
294.422
297.961
301.307
304.449
307.381
310.093
312.577
314.827
316.835
318.596
320.103
321.352
322.339
323.061
323.501
323.667
323.577
323.219
322.597
321.715
320.577
319.191
317.563
315.7
313.61
311.305
308.795
306.091
303.208
300.159
296.958
293.62
290.159
286.591
282.93
279.192
275.391
271.542
267.659
263.756
259.846
255.941
252.055
248.197
244.378
240.609
236.897
233.25
229.676
226.181
222.769
219.446
216.215
213.079
210.041
207.106
204.27
201.533
198.894
196.353
193.911
191.572
189.346
187.251
185.316
183.602
182.089
180.753
12.6528
5.23068
3.88071
3.47502
3.3594
3.36909
3.45605
3.59572
3.77602
3.99044
4.2351
4.50752
4.80601
5.12939
5.47683
5.84787
6.24235
6.66039
7.10237
7.56892
8.06083
8.57905
9.1246
9.69855
10.3021
10.9364
11.6029
12.3027
13.0374
13.8081
14.6162
15.4633
16.3505
17.2796
18.2518
19.2689
20.3324
21.4441
22.6056
23.8188
25.0858
26.4087
27.7895
29.2304
30.7335
32.301
33.9352
35.6385
37.4133
39.2622
41.1876
43.1922
45.2785
47.4493
49.7072
52.0551
54.4954
57.0311
59.6646
62.3987
65.2359
68.1786
71.2291
74.3897
77.6623
81.049
84.5512
88.1704
91.9079
95.7644
99.7405
103.836
108.052
112.387
116.84
121.411
126.096
130.894
135.803
140.819
145.938
151.157
156.47
161.873
167.361
172.926
178.563
184.264
190.023
195.831
201.681
207.563
213.468
219.387
225.309
231.225
237.123
242.993
248.823
254.603
260.321
265.966
271.527
276.991
282.349
287.586
292.694
297.659
302.47
307.117
311.587
315.871
319.958
323.837
327.499
330.934
334.133
337.087
339.789
342.229
344.401
346.299
347.918
349.251
350.295
351.048
351.492
351.64
351.498
351.062
350.335
349.323
348.03
346.463
344.63
342.538
340.197
337.617
334.81
331.789
328.567
325.16
321.583
317.85
313.978
309.983
305.88
301.686
297.415
293.084
288.708
284.3
279.876
275.448
271.029
266.631
262.265
257.941
253.668
249.455
245.31
241.239
237.248
233.343
229.527
225.805
222.181
218.658
215.237
211.92
208.709
205.606
202.616
199.745
197.005
194.416
192.003
189.816
187.818
185.967
14.4722
5.80986
4.22647
3.73795
3.58331
3.57095
3.64242
3.77065
3.94142
4.1471
4.38328
4.64725
4.93725
5.25213
5.59118
5.954
6.3405
6.75082
7.18534
7.64467
8.12963
8.64121
9.18052
9.74809
10.3452
10.9733
11.6338
12.3282
13.0578
13.8242
14.629
15.4736
16.3597
17.2891
18.2635
19.2846
20.3544
21.4746
22.6474
23.8744
25.1589
26.5036
27.9108
29.383
30.9229
32.5331
34.2165
35.9759
37.8143
39.7348
41.7403
43.8343
46.0198
48.3003
50.679
53.1593
55.7445
58.4381
61.2433
64.1633
67.2014
70.3606
73.6439
77.0539
80.5932
84.2642
88.069
92.0093
96.0866
100.302
104.656
109.15
113.783
118.554
123.463
128.507
133.685
138.995
144.432
149.993
155.674
161.47
167.375
173.383
179.488
185.681
191.956
198.304
204.716
211.183
217.695
224.242
230.812
237.394
243.978
250.55
257.098
263.611
270.074
276.477
282.805
289.046
295.187
301.215
307.117
312.881
318.493
323.941
329.212
334.295
339.176
343.846
348.292
352.503
356.47
360.182
363.629
366.804
369.697
372.3
374.607
376.611
378.306
379.688
380.752
381.495
381.906
381.994
381.76
381.203
380.329
379.143
377.65
375.858
373.775
371.409
368.77
365.87
362.721
359.337
355.732
351.921
347.92
343.747
339.417
334.947
330.354
325.655
320.866
316.003
311.083
306.12
301.13
296.126
291.122
286.131
281.164
276.232
271.346
266.513
261.743
257.043
252.42
247.881
243.43
239.073
234.815
230.66
226.613
222.677
218.857
215.158
211.589
208.157
204.877
201.769
198.855
196.176
193.684
191.332
16.0954
6.31208
4.51537
3.94982
3.75691
3.72337
3.7796
3.89621
4.0572
4.25399
4.48162
4.7371
5.01858
5.32487
5.65528
6.00949
6.3875
6.78953
7.21552
7.66627
8.1428
8.64628
9.1782
9.73881
10.3294
10.9512
11.6057
12.2945
13.0192
13.7813
14.5826
15.425
16.3101
17.2399
18.2166
19.2422
20.3189
21.4489
22.6344
23.8777
25.1841
26.5556
27.9953
29.5061
31.0913
32.7543
34.4983
36.3268
38.2434
40.2517
42.3557
44.5591
46.866
49.2803
51.8061
54.4475
57.2087
60.0935
63.1062
66.2507
69.5307
72.95
76.512
80.2202
84.0776
88.0868
92.2504
96.5705
101.049
105.686
110.484
115.442
120.561
125.839
131.275
136.866
142.611
148.506
154.546
160.728
167.046
173.493
180.063
186.749
193.542
200.434
207.415
214.475
221.605
228.791
236.025
243.292
250.58
257.876
265.166
272.437
279.674
286.864
293.992
301.043
308.003
314.858
321.593
328.193
334.645
340.935
347.047
352.969
358.687
364.188
369.459
374.488
379.264
383.774
388.009
391.958
395.611
398.961
401.998
404.715
407.105
409.162
410.88
412.256
413.284
413.962
414.285
414.256
413.875
413.14
412.065
410.651
408.906
406.837
404.453
401.764
398.78
395.512
391.975
388.181
384.147
379.888
375.422
370.764
365.934
360.947
355.822
350.577
345.227
339.791
334.285
328.725
323.127
317.506
311.876
306.249
300.639
295.057
289.514
284.019
278.583
273.212
267.916
262.702
257.577
252.546
247.617
242.795
238.088
233.502
229.044
224.723
220.548
216.533
212.691
209.044
205.61
202.427
199.437
196.596
17.4882
6.73172
4.74723
4.11268
3.8845
3.83083
3.87239
3.97763
4.12899
4.31704
4.53632
4.78359
5.05687
5.35498
5.67686
6.0224
6.39187
6.78598
7.20433
7.64763
8.11668
8.61238
9.13552
9.68699
10.2686
10.8821
11.5289
12.2109
12.9299
13.6878
14.4865
15.3282
16.2151
17.1494
18.1334
19.1697
20.2613
21.4102
22.6187
23.8897
25.2272
26.6357
28.119
29.6813
31.3272
33.0602
34.8842
36.8033
38.8218
40.9441
43.1749
45.5188
47.9806
50.5652
53.2773
56.122
59.104
62.2282
65.4993
68.9221
72.501
76.2402
80.1439
84.2159
88.4594
92.8777
97.4734
102.249
107.205
112.344
117.666
123.171
128.858
134.726
140.773
146.995
153.39
159.953
166.679
173.561
180.594
187.769
195.079
202.514
210.064
217.719
225.469
233.299
241.199
249.156
257.155
265.183
273.225
281.265
289.289
297.28
305.222
313.101
320.898
328.599
336.186
343.645
350.959
358.112
365.089
371.874
378.453
384.81
390.931
396.803
402.412
407.745
412.791
417.538
421.975
426.093
429.883
433.336
436.443
439.199
441.596
443.63
445.295
446.588
447.506
448.046
448.205
447.989
447.386
446.408
445.065
443.361
441.303
438.898
436.156
433.089
429.706
426.021
422.047
417.798
413.291
408.541
403.567
398.387
393.017
387.477
381.784
375.957
370.013
363.969
357.844
351.655
345.417
339.146
332.858
326.565
320.281
314.018
307.787
301.6
295.466
289.396
283.397
277.479
271.65
265.918
260.291
254.778
249.387
244.129
239.012
234.049
229.252
224.636
220.218
216.017
212.053
208.357
204.869
201.553
18.6331
7.06778
4.92445
4.2305
3.97109
3.89891
3.92686
4.02135
4.16361
4.34355
4.55493
4.79444
5.0602
5.35135
5.66642
6.00509
6.36723
6.75264
7.16172
7.59571
8.05563
8.54262
9.05801
9.60316
10.1795
10.7886
11.4323
12.1125
12.8313
13.591
14.3939
15.243
16.1401
17.0877
18.0887
19.1462
20.2629
21.4394
22.6813
23.9936
25.3812
26.8485
28.4
30.0403
31.7742
33.6075
35.5447
37.5905
39.7502
42.0291
44.4328
46.9669
49.6371
52.449
55.4083
58.5207
61.7919
65.2275
68.8329
72.6134
76.5739
80.7193
85.0538
89.5816
94.3061
99.2303
104.357
109.688
115.224
120.967
126.915
133.069
139.427
145.986
152.743
159.694
166.834
174.156
181.656
189.324
197.152
205.131
213.251
221.501
229.869
238.342
246.907
255.55
264.257
273.012
281.8
290.605
299.409
308.197
316.949
325.65
334.281
342.824
351.261
359.575
367.748
375.763
383.603
391.25
398.689
405.902
412.873
419.588
426.031
432.188
438.046
443.592
448.814
453.701
458.243
462.43
466.254
469.707
472.782
475.474
477.777
479.686
481.198
482.312
483.024
483.333
483.24
482.742
481.83
480.529
478.843
476.775
474.334
471.526
468.364
464.859
461.023
456.868
452.408
447.657
442.634
437.353
431.834
426.095
420.154
414.029
407.739
401.302
394.737
388.062
381.294
374.452
367.552
360.61
353.642
346.662
339.684
332.721
325.784
318.886
312.037
305.248
298.529
291.89
285.341
278.892
272.552
266.333
260.246
254.302
248.516
242.9
237.471
232.246
227.243
222.483
217.984
213.776
209.794
206.022
19.5224
7.32123
5.05039
4.30788
4.02219
3.93383
3.94992
4.03468
4.16874
4.34181
4.54715
4.78094
5.04071
5.32471
5.63223
5.9634
6.3184
6.69775
7.10178
7.53129
7.98732
8.4712
8.98441
9.52867
10.1059
10.7177
11.3659
12.0528
12.7811
13.5534
14.3723
15.2407
16.1587
17.131
18.1619
19.2552
20.4151
21.6459
22.9524
24.3395
25.8127
27.3772
29.0385
30.8023
32.6748
34.6618
36.7692
39.0033
41.3703
43.877
46.5299
49.3358
52.301
55.4321
58.7356
62.2179
65.8852
69.7438
73.7993
78.0574
82.5233
87.2017
92.0968
97.2124
102.552
108.117
113.91
119.931
126.182
132.661
139.367
146.298
153.45
160.82
168.402
176.191
184.179
192.359
200.721
209.256
217.954
226.803
235.791
244.903
254.127
263.448
272.85
282.317
291.832
301.378
310.939
320.495
330.028
339.52
348.95
358.301
367.553
376.687
385.683
394.523
403.188
411.66
419.92
427.951
435.736
443.257
450.499
457.445
464.081
470.392
476.366
481.989
487.25
492.139
496.648
500.766
504.488
507.807
510.716
513.211
515.289
516.947
518.182
518.996
519.387
519.352
518.9
518
516.691
514.975
512.858
510.345
507.444
504.162
500.513
496.508
492.161
487.483
482.489
477.193
471.613
465.765
459.669
453.342
446.802
440.07
433.162
426.097
418.894
411.571
404.147
396.64
389.066
381.443
373.786
366.111
358.431
350.76
343.11
335.494
327.924
320.411
312.967
305.602
298.329
291.158
284.103
277.175
270.389
263.759
257.301
251.033
244.972
239.139
233.553
228.236
223.206
218.493
214.03
209.826
20.1479
7.49044
5.12724
4.349
4.04342
3.94202
3.94888
4.02676
4.15494
4.32198
4.52133
4.74967
5.00481
5.2855
5.59082
5.92062
6.27525
6.65487
7.06005
7.49188
7.95166
8.44098
8.9616
9.51547
10.1046
10.7292
11.3928
12.0985
12.8496
13.6493
14.501
15.4085
16.3756
17.4065
18.5056
19.6778
20.9284
22.2629
23.6871
25.2071
26.8292
28.5597
30.4055
32.3735
34.471
36.7048
39.0823
41.6112
44.2996
47.1557
50.1876
53.4027
56.8079
60.4104
64.2168
68.2339
72.468
76.9251
81.6109
86.5305
91.6882
97.0881
102.733
108.626
114.768
121.16
127.802
134.693
141.831
149.213
156.836
164.695
172.784
181.097
189.626
198.362
207.296
216.419
225.717
235.18
244.794
254.545
264.419
274.401
284.474
294.622
304.827
315.07
325.335
335.602
345.852
356.066
366.224
376.306
386.292
396.162
405.895
415.472
424.874
434.079
443.07
451.827
460.332
468.568
476.518
484.164
491.489
498.48
505.12
511.397
517.298
522.811
527.927
532.635
536.929
540.8
544.244
547.257
549.833
551.97
553.665
554.918
555.728
556.103
556.033
555.532
554.564
553.171
551.355
549.124
546.482
543.435
539.994
536.165
531.961
527.396
522.482
517.233
511.661
505.782
499.612
493.169
486.47
479.535
472.38
465.026
457.489
449.788
441.942
433.968
425.886
417.713
409.466
401.164
392.822
384.456
376.079
367.705
359.349
351.022
342.737
334.507
326.345
318.263
310.273
302.39
294.628
287.001
279.525
272.218
265.099
258.189
251.509
245.078
238.921
233.061
227.515
222.314
217.391
212.786
20.6012
7.60475
5.16931
4.36304
4.04266
3.93245
3.9323
4.0042
4.12835
4.29387
4.49372
4.72376
4.98172
5.26633
5.57695
5.91346
6.27604
6.66413
7.07943
7.52353
7.9982
8.50545
9.04756
9.62704
10.2467
10.9096
11.6189
12.3784
13.1921
14.0644
14.9999
16.0037
17.0811
18.2376
19.4791
20.8122
22.2435
23.7802
25.4297
27.1999
29.0987
31.1341
33.3144
35.6478
38.1416
40.8045
43.6458
46.6752
49.9024
53.3381
56.9933
60.874
64.9865
69.3367
73.9307
78.7738
83.8713
89.2275
94.846
100.73
106.881
113.301
119.99
126.946
134.169
141.656
149.403
157.406
165.659
174.156
182.89
191.853
201.036
210.428
220.02
229.8
239.755
249.873
260.141
270.542
281.062
291.686
302.397
313.177
324.011
334.879
345.762
356.643
367.501
378.318
389.073
399.747
410.321
420.773
431.083
441.233
451.201
460.968
470.515
479.821
488.87
497.641
506.118
514.284
522.122
529.617
536.752
543.514
549.888
555.862
561.427
566.57
571.284
575.561
579.395
582.782
585.717
588.199
590.225
591.794
592.906
593.56
593.758
593.523
592.821
591.66
590.061
588.032
585.579
582.71
579.431
575.75
571.675
567.213
562.378
557.182
551.64
545.764
539.566
533.061
526.265
519.195
511.869
504.303
496.517
488.528
480.352
472.008
463.514
454.887
446.147
437.31
428.395
419.418
410.397
401.347
392.281
383.215
374.161
365.134
356.146
347.211
338.343
329.556
320.864
312.283
303.829
295.518
287.369
279.402
271.641
264.107
256.827
249.82
243.114
236.734
230.692
225.017
219.648
214.672
20.8416
7.642
5.16994
4.35354
4.02731
3.91316
3.91416
3.99036
4.12059
4.29352
4.5011
4.74046
5.00968
5.30782
5.63459
5.9903
6.3758
6.79233
7.24147
7.72536
8.24653
8.80795
9.41293
10.0652
10.769
11.5289
12.3497
13.2368
14.1958
15.2332
16.3556
17.5703
18.8849
20.3074
21.8462
23.5106
25.3096
27.2532
29.3511
31.6135
34.0502
36.6716
39.4876
42.5076
45.741
49.1973
52.8862
56.8173
60.9997
65.4427
70.1572
75.1497
80.4216
85.975
91.8115
97.9324
104.338
111.028
118.002
125.256
132.787
140.592
148.665
156.999
165.589
174.426
183.502
192.808
202.334
212.069
222.004
232.126
242.424
252.884
263.495
274.243
285.112
296.09
307.161
318.31
329.52
340.776
352.06
363.356
374.647
385.915
397.141
408.308
419.398
430.39
441.267
452.011
462.602
473.022
483.251
493.272
503.066
512.615
521.9
530.903
539.608
547.996
556.053
563.763
571.112
578.086
584.669
590.849
596.613
601.953
606.858
611.322
615.334
618.892
621.993
624.633
626.808
628.525
629.778
630.568
630.901
630.772
630.202
629.147
627.662
625.739
623.385
620.609
617.42
613.825
609.835
605.454
600.691
595.553
590.05
584.198
578.009
571.494
564.666
557.538
550.125
542.443
534.507
526.335
517.944
509.35
500.569
491.618
482.513
473.273
463.915
454.457
444.916
435.309
425.653
415.962
406.253
396.537
386.831
377.147
367.5
357.904
348.373
338.923
329.571
320.333
311.23
302.278
293.497
284.912
276.549
268.429
260.573
253.014
245.782
238.908
232.417
226.345
220.608
215.341
20.9024
7.62561
5.14682
4.33027
4.01048
3.90698
3.91936
4.00745
4.15188
4.34194
4.57164
4.83758
5.13818
5.47305
5.84269
6.24831
6.69184
7.17578
7.70314
8.27755
8.90323
9.58501
10.3283
11.139
12.0239
12.9902
14.0461
15.1998
16.4606
17.8382
19.3433
20.987
22.7809
24.737
26.8676
29.1851
31.7022
34.4319
37.3861
40.5768
44.0151
47.7119
51.6775
55.9205
60.448
65.2674
70.3858
75.8084
81.5393
87.5844
93.9464
100.626
107.612
114.899
122.48
130.347
138.492
146.906
155.581
164.507
173.672
183.067
192.68
202.499
212.513
222.71
233.076
243.601
254.271
265.075
276
287.035
298.165
309.379
320.664
332.007
343.395
354.814
366.25
377.689
389.118
400.522
411.886
423.194
434.433
445.586