/*--------------------------------*- C++ -*----------------------------------*\
| =========                 |                                                 |
| \\      /  F ield         | OpenFOAM: The Open Source CFD Toolbox           |
|  \\    /   O peration     | Version:  2406                                  |
|   \\  /    A nd           | Website:  www.openfoam.com                      |
|    \\/     M anipulation  |                                                 |
\*---------------------------------------------------------------------------*/
FoamFile
{
    version     2.0;
    format      ascii;
    arch        "LSB;label=32;scalar=64";
    class       volScalarField;
    location    "200";
    object      k;
}
// * * * * * * * * * * * * * * * * * * * * * * * * * * * * * * * * * * * * * //

dimensions      [0 2 -2 0 0 0 0];

internalField   nonuniform List<scalar> 
12225
(
0.571497
0.987648
1.28116
1.45557
1.54167
1.57743
1.57634
1.56599
1.54777
1.52389
1.50051
1.47802
1.45795
1.43901
1.42338
1.40766
1.397
1.38233
0.438449
0.49688
0.521949
0.534908
0.542878
0.547411
0.550236
0.552213
0.556065
0.559398
0.565592
0.57109
0.579557
0.586868
0.596746
0.605296
0.615199
0.625626
0.38757
0.417492
0.424188
0.421531
0.415047
0.404957
0.393816
0.382792
0.371953
0.362407
0.353262
0.346094
0.338994
0.334326
0.329128
0.326687
0.323079
0.32234
0.37618
0.384817
0.388124
0.387417
0.385436
0.381133
0.375689
0.369558
0.36312
0.35656
0.35011
0.343802
0.33782
0.332065
0.326776
0.321684
0.317174
0.312716
0.374178
0.375374
0.376397
0.37593
0.374799
0.372506
0.369617
0.366136
0.362485
0.35847
0.354557
0.35037
0.34652
0.342385
0.338792
0.334822
0.331605
0.327849
0.373737
0.372544
0.371997
0.371083
0.369918
0.368266
0.36634
0.364031
0.361641
0.358967
0.356373
0.353537
0.350916
0.348048
0.34552
0.342702
0.340347
0.337627
0.373769
0.371725
0.370231
0.368831
0.367465
0.36594
0.364345
0.362552
0.360734
0.358749
0.356813
0.354731
0.352769
0.350666
0.348748
0.346672
0.344851
0.342831
0.373818
0.371563
0.369621
0.36786
0.366251
0.364663
0.363122
0.361521
0.359945
0.358298
0.356695
0.355026
0.353429
0.351769
0.350213
0.348588
0.347103
0.345524
0.373833
0.371554
0.369458
0.367511
0.365722
0.364025
0.362428
0.360861
0.359355
0.357852
0.356401
0.354943
0.353541
0.35213
0.350785
0.349425
0.348148
0.346843
0.373832
0.37156
0.369425
0.36741
0.36553
0.363752
0.362086
0.360493
0.358981
0.357516
0.356115
0.354748
0.353437
0.352151
0.350919
0.349706
0.34855
0.347405
0.37383
0.371561
0.369417
0.367384
0.365468
0.363653
0.361942
0.360317
0.358779
0.357309
0.355912
0.35457
0.353289
0.352053
0.350872
0.349729
0.348635
0.347574
0.373828
0.371559
0.369412
0.367375
0.365448
0.36362
0.36189
0.360247
0.358691
0.35721
0.355803
0.35446
0.353181
0.351958
0.35079
0.34967
0.348599
0.347571
0.373827
0.371557
0.369407
0.367369
0.365437
0.363603
0.361865
0.360214
0.358646
0.357156
0.35574
0.354391
0.353107
0.351883
0.350716
0.349602
0.348537
0.347521
0.373827
0.371555
0.369403
0.367362
0.365428
0.363591
0.361848
0.360193
0.358619
0.357123
0.3557
0.354346
0.353056
0.351828
0.350657
0.349541
0.348475
0.347459
0.373826
0.371553
0.369399
0.367357
0.36542
0.363581
0.361835
0.360176
0.3586
0.3571
0.355673
0.354315
0.353021
0.351789
0.350614
0.349494
0.348425
0.347406
0.373826
0.371552
0.369396
0.367352
0.365413
0.363572
0.361824
0.360163
0.358584
0.357082
0.355652
0.354291
0.352994
0.351759
0.350581
0.349458
0.348386
0.347364
0.373825
0.371551
0.369395
0.367349
0.365408
0.363566
0.361816
0.360153
0.358571
0.357067
0.355635
0.354272
0.352973
0.351735
0.350555
0.34943
0.348356
0.347331
0.373825
0.371551
0.369393
0.367347
0.365405
0.363561
0.36181
0.360145
0.358562
0.357057
0.355623
0.354258
0.352958
0.351718
0.350536
0.34941
0.348334
0.347308
0.373825
0.371551
0.369393
0.367347
0.365404
0.36356
0.361808
0.360143
0.358559
0.357052
0.355618
0.354252
0.352951
0.35171
0.350528
0.3494
0.348324
0.347297
0.373825
0.371551
0.369394
0.367348
0.365406
0.363562
0.361811
0.360146
0.358562
0.357056
0.355622
0.354256
0.352955
0.351715
0.350532
0.349405
0.348329
0.347302
0.373826
0.371552
0.369396
0.367351
0.36541
0.363567
0.361816
0.360153
0.358571
0.357065
0.355633
0.354269
0.352969
0.35173
0.35055
0.349423
0.348349
0.347323
0.373826
0.371553
0.369398
0.367355
0.365416
0.363575
0.361828
0.360168
0.358591
0.357092
0.355665
0.354306
0.353012
0.351779
0.350603
0.34948
0.348408
0.347383
0.373826
0.371555
0.369401
0.367363
0.365432
0.363605
0.361875
0.360237
0.358681
0.357203
0.355794
0.354451
0.353167
0.351939
0.350762
0.349635
0.348552
0.347513
0.373826
0.371556
0.369413
0.367418
0.365544
0.363794
0.362138
0.360572
0.359071
0.357632
0.35624
0.354896
0.353589
0.352323
0.35109
0.349894
0.348728
0.347601
0.373819
0.371564
0.369582
0.367846
0.366223
0.364712
0.363219
0.361754
0.360267
0.358787
0.357288
0.3558
0.354306
0.352833
0.351361
0.349924
0.348495
0.347109
0.373767
0.371946
0.370917
0.369978
0.368912
0.367767
0.366326
0.364737
0.362934
0.361062
0.35906
0.357054
0.354971
0.352925
0.350845
0.348825
0.346792
0.344839
0.374093
0.375201
0.37726
0.37756
0.377092
0.375805
0.373488
0.370864
0.367802
0.364686
0.361328
0.358027
0.354602
0.351291
0.347923
0.3447
0.341472
0.338414
0.377677
0.394076
0.402944
0.402353
0.400308
0.396045
0.390665
0.385166
0.379133
0.373303
0.367221
0.361476
0.355719
0.350305
0.345128
0.340198
0.335726
0.331325
0.405777
0.438977
0.451189
0.45581
0.459111
0.46226
0.464972
0.467228
0.469223
0.470843
0.472491
0.473927
0.475547
0.477074
0.479213
0.480837
0.483678
0.485392
0.479012
0.684927
0.865146
0.990809
1.09437
1.17584
1.23938
1.28341
1.31504
1.33207
1.3432
1.34353
1.34142
1.3363
1.32784
1.31773
1.3068
1.29536
0.00427417
0.00699535
0.00986229
0.0123566
0.0143802
0.0159769
0.0172936
0.0185019
0.0195997
0.0206446
0.0216874
0.0227857
0.0239989
0.0254489
0.0272061
0.0292065
0.0313709
0.0336916
0.0361643
0.0388174
0.0416543
0.0447026
0.0479578
0.0514404
0.05514
0.0590765
0.063244
0.067634
0.0722065
0.0769676
0.0818932
0.0869936
0.0922483
0.0976671
0.10323
0.10895
0.114807
0.120826
0.127007
0.133394
0.140008
0.146925
0.154059
0.161346
0.168795
0.176422
0.18421
0.192181
0.200317
0.20864
0.21713
0.225811
0.234663
0.243706
0.252923
0.262333
0.271915
0.281691
0.291639
0.301779
0.312088
0.322585
0.333248
0.344095
0.355099
0.366282
0.377614
0.389115
0.400755
0.412554
0.42448
0.436551
0.448736
0.461052
0.473464
0.48599
0.498595
0.511295
0.524054
0.536888
0.54976
0.562684
0.575623
0.58859
0.601545
0.6145
0.627415
0.640298
0.653115
0.665862
0.678513
0.691041
0.70342
0.715625
0.727627
0.739399
0.750922
0.762202
0.773299
0.784242
0.794902
0.805319
0.815462
0.82532
0.834874
0.84411
0.853008
0.861555
0.86973
0.877521
0.884907
0.891875
0.898408
0.90449
0.910107
0.915244
0.91989
0.92403
0.927654
0.93075
0.933311
0.935331
0.936813
0.93775
0.938148
0.937986
0.937215
0.935738
0.933817
0.931521
0.928581
0.925086
0.921073
0.916541
0.911521
0.906017
0.900063
0.893667
0.886848
0.879629
0.872068
0.864195
0.856041
0.847643
0.83903
0.830241
0.821306
0.812268
0.803154
0.794009
0.78486
0.775749
0.766706
0.757769
0.748967
0.740336
0.731902
0.723698
0.715747
0.708078
0.700709
0.693673
0.686984
0.68068
0.675006
0.671855
0.670509
0.66868
0.667404
0.666555
0.666052
0.665974
0.666249
0.66681
0.667585
0.668416
0.669208
0.669418
0.667652
0.649017
0.0106062
0.0173
0.0238324
0.0288756
0.0330642
0.0367201
0.0400188
0.0431186
0.0462026
0.0493871
0.0527357
0.0562788
0.0600247
0.0639722
0.0681128
0.0724423
0.0769568
0.0816665
0.0865874
0.0917447
0.0971595
0.102855
0.108845
0.115146
0.121762
0.128704
0.13597
0.143566
0.151486
0.159731
0.168292
0.177174
0.186374
0.195898
0.205745
0.215922
0.226403
0.237182
0.248256
0.259633
0.271308
0.283285
0.295552
0.308112
0.320969
0.334134
0.347607
0.361397
0.375505
0.38994
0.404702
0.4198
0.435232
0.451009
0.467128
0.483598
0.500416
0.51759
0.535117
0.553002
0.571241
0.58984
0.608793
0.628104
0.647765
0.667779
0.688137
0.70884
0.729877
0.751248
0.772941
0.794953
0.817271
0.839889
0.862793
0.885976
0.90942
0.933117
0.957048
0.981205
1.00557
1.03012
1.05484
1.07972
1.10473
1.12985
1.15507
1.18035
1.20567
1.23101
1.25635
1.28164
1.30684
1.33192
1.35684
1.38153
1.40595
1.43002
1.45366
1.47687
1.49979
1.52239
1.54463
1.56648
1.5879
1.60888
1.62936
1.64932
1.66872
1.68752
1.70568
1.72318
1.73997
1.75602
1.77129
1.78574
1.79935
1.81207
1.82388
1.83474
1.84464
1.85354
1.86142
1.86828
1.8741
1.87887
1.88258
1.88482
1.88593
1.88636
1.88571
1.88382
1.88083
1.87676
1.87166
1.86553
1.85842
1.85036
1.84141
1.8316
1.82101
1.80969
1.79769
1.78509
1.77196
1.75834
1.74432
1.72997
1.71536
1.70056
1.68564
1.67068
1.65576
1.64094
1.6263
1.6119
1.59782
1.58412
1.57086
1.5581
1.54589
1.53429
1.52334
1.51308
1.50362
1.49528
1.48779
1.48104
1.47517
1.47008
1.46579
1.46217
1.45913
1.45657
1.45432
1.45223
1.44999
1.44748
1.44165
1.42001
0.016498
0.0280537
0.0368977
0.0435484
0.0491527
0.0542065
0.0589806
0.0636584
0.0683747
0.0732226
0.0782577
0.0835078
0.0889818
0.0946806
0.100602
0.106747
0.113121
0.119739
0.126619
0.133786
0.141262
0.149071
0.157231
0.165758
0.174665
0.183963
0.193657
0.203752
0.21425
0.22515
0.236448
0.248144
0.260235
0.272718
0.285591
0.29885
0.312488
0.326506
0.340901
0.355673
0.370821
0.386346
0.402246
0.418527
0.435191
0.452245
0.469692
0.487539
0.505787
0.524444
0.543512
0.562997
0.582899
0.603225
0.623976
0.645155
0.666763
0.688803
0.711275
0.734179
0.757513
0.781278
0.805471
0.830088
0.855127
0.880583
0.906449
0.93272
0.959387
0.986444
1.01388
1.04169
1.06985
1.09836
1.1272
1.15635
1.18581
1.21555
1.24556
1.27582
1.3063
1.337
1.36788
1.39892
1.43009
1.46138
1.49276
1.52419
1.55565
1.58711
1.61854
1.6499
1.68115
1.71225
1.74318
1.77388
1.80433
1.83449
1.86434
1.89385
1.92299
1.95173
1.98003
2.00784
2.03513
2.06185
2.08795
2.11339
2.13813
2.16212
2.18532
2.20767
2.22914
2.24967
2.26922
2.28775
2.30521
2.32156
2.33676
2.35077
2.36354
2.37507
2.3853
2.39423
2.40183
2.40808
2.41296
2.41631
2.41808
2.41871
2.41807
2.41595
2.41242
2.40755
2.40134
2.39385
2.38511
2.37517
2.36409
2.35193
2.33877
2.32466
2.3097
2.29396
2.27751
2.26045
2.24287
2.22484
2.20646
2.18782
2.16901
2.15013
2.13126
2.11249
2.09392
2.07564
2.05771
2.04024
2.02328
2.00692
1.99123
1.97625
1.96206
1.9487
1.93623
1.92473
1.91415
1.90454
1.89586
1.88804
1.88104
1.87479
1.86916
1.86407
1.85937
1.85494
1.85058
1.84628
1.83972
1.82368
0.0212075
0.0384541
0.049552
0.0576796
0.0644787
0.07061
0.0764237
0.0821385
0.0879024
0.0938154
0.0999393
0.106307
0.112932
0.119819
0.126968
0.134383
0.142074
0.150056
0.15835
0.16698
0.17597
0.185343
0.195119
0.205314
0.215941
0.227008
0.238521
0.25048
0.262884
0.275732
0.289025
0.302765
0.316948
0.331571
0.346631
0.362126
0.378052
0.394409
0.411195
0.428411
0.446056
0.464132
0.482641
0.501588
0.520975
0.54081
0.561095
0.581838
0.603043
0.624714
0.646857
0.669475
0.692573
0.716155
0.740222
0.764779
0.789827
0.815369
0.841403
0.867932
0.894954
0.922467
0.95047
0.978959
1.00793
1.03738
1.0673
1.09768
1.12852
1.1598
1.19152
1.22366
1.25622
1.28917
1.3225
1.35619
1.39023
1.4246
1.45928
1.49424
1.52946
1.56492
1.60059
1.63645
1.67246
1.7086
1.74484
1.78115
1.81749
1.85383
1.89014
1.92637
1.9625
1.99848
2.03428
2.06986
2.10518
2.14021
2.17489
2.20921
2.2431
2.27653
2.30945
2.3418
2.37355
2.40463
2.43501
2.46462
2.49342
2.52136
2.54837
2.57442
2.59944
2.62339
2.64621
2.66785
2.68825
2.70738
2.72518
2.74161
2.75663
2.77019
2.78227
2.79284
2.80186
2.80931
2.81518
2.81943
2.82183
2.82271
2.82216
2.81994
2.8161
2.81069
2.80373
2.79527
2.78536
2.77405
2.7614
2.74749
2.73238
2.71617
2.69894
2.68078
2.66178
2.64203
2.62164
2.60071
2.57933
2.55761
2.53566
2.51358
2.49147
2.46943
2.44757
2.42599
2.40478
2.38403
2.36382
2.34425
2.32538
2.30729
2.29002
2.27362
2.25815
2.24364
2.23009
2.21754
2.20593
2.19521
2.18533
2.17621
2.16777
2.1599
2.15252
2.14558
2.13898
2.13281
2.12542
2.11218
0.0249159
0.0480314
0.0614575
0.0710761
0.0790266
0.0861325
0.0928226
0.0993569
0.105908
0.112593
0.119489
0.126643
0.134079
0.141812
0.149848
0.158197
0.16687
0.175883
0.185256
0.195011
0.205169
0.215751
0.226773
0.23825
0.250193
0.262609
0.275503
0.288876
0.302732
0.31707
0.33189
0.347191
0.362971
0.379228
0.395961
0.413167
0.430846
0.448998
0.467622
0.486719
0.506291
0.52634
0.54687
0.567887
0.589395
0.611402
0.633912
0.656933
0.680471
0.70453
0.729117
0.754237
0.779895
0.806095
0.832841
0.860138
0.887987
0.916392
0.945354
0.974873
1.00495
1.03558
1.06677
1.09851
1.1308
1.16363
1.197
1.2309
1.26532
1.30025
1.33568
1.3716
1.40799
1.44483
1.48212
1.51983
1.55794
1.59642
1.63527
1.67445
1.71393
1.75369
1.7937
1.83393
1.87435
1.91493
1.95562
1.9964
2.03722
2.07807
2.11888
2.15963
2.20027
2.24077
2.28107
2.32114
2.36093
2.40039
2.43949
2.47816
2.51636
2.55403
2.59114
2.62761
2.6634
2.69845
2.7327
2.7661
2.79859
2.83012
2.86061
2.89003
2.9183
2.94538
2.9712
2.9957
3.01884
3.04055
3.06079
3.07949
3.09663
3.11215
3.12601
3.13818
3.14862
3.15731
3.16423
3.16937
3.17253
3.17383
3.17352
3.17137
3.16741
3.16168
3.1542
3.14503
3.1342
3.12179
3.10785
3.09247
3.07573
3.05771
3.0385
3.01821
2.99693
2.97478
2.95185
2.92826
2.90411
2.87953
2.85463
2.82952
2.80431
2.77912
2.75406
2.72924
2.70475
2.6807
2.65718
2.63429
2.61209
2.59066
2.57006
2.55035
2.53156
2.51372
2.49684
2.48096
2.46602
2.45197
2.43878
2.42639
2.41473
2.40372
2.39332
2.38353
2.37438
2.36602
2.3572
2.34464
0.0279009
0.0566574
0.0723027
0.083364
0.0924176
0.100433
0.107909
0.115144
0.122339
0.129631
0.137115
0.144854
0.15289
0.161247
0.169943
0.178993
0.188411
0.198214
0.208417
0.219042
0.230104
0.241622
0.253609
0.266078
0.279038
0.292495
0.306455
0.32092
0.335893
0.351376
0.367367
0.383867
0.400876
0.418393
0.436418
0.454951
0.473993
0.493546
0.51361
0.53419
0.555289
0.576911
0.599062
0.621749
0.644978
0.668756
0.693091
0.717989
0.743458
0.769506
0.796138
0.823362
0.851184
0.879611
0.908647
0.938298
0.968567
0.999459
1.03098
1.06312
1.09589
1.12929
1.16332
1.19797
1.23325
1.26914
1.30565
1.34276
1.38047
1.41876
1.45762
1.49705
1.53702
1.57752
1.61852
1.66002
1.70198
1.74438
1.7872
1.83041
1.87397
1.91787
1.96206
2.00651
2.05119
2.09606
2.14107
2.1862
2.23139
2.27662
2.32183
2.36697
2.41201
2.45689
2.50157
2.546
2.59012
2.63388
2.67722
2.7201
2.76246
2.80423
2.84537
2.88582
2.9255
2.96437
3.00236
3.03942
3.07547
3.11046
3.14432
3.17699
3.20842
3.23853
3.26727
3.29457
3.32037
3.34462
3.36725
3.38822
3.40747
3.42495
3.44061
3.45442
3.46634
3.47634
3.4844
3.4905
3.49452
3.4964
3.49648
3.49455
3.49062
3.48472
3.47688
3.46716
3.45559
3.44225
3.4272
3.41051
3.39229
3.37261
3.35157
3.32929
3.30586
3.28141
3.25603
3.22986
3.20301
3.1756
3.14776
3.1196
3.09126
3.06285
3.03449
3.00629
2.97837
2.95082
2.92376
2.89727
2.87144
2.84634
2.82205
2.79861
2.77608
2.75448
2.73383
2.71414
2.69541
2.67758
2.66063
2.64453
2.62923
2.61469
2.60091
2.58795
2.5759
2.56496
2.5541
2.54082
0.0317131
0.0644221
0.0819644
0.094308
0.104361
0.113205
0.121391
0.129251
0.137004
0.144808
0.152773
0.160979
0.169482
0.17832
0.18752
0.197104
0.207088
0.217491
0.228327
0.239614
0.251365
0.263595
0.276315
0.289537
0.303268
0.317515
0.332282
0.347574
0.363394
0.379744
0.396625
0.41404
0.431988
0.450474
0.469497
0.489061
0.509168
0.529822
0.551028
0.57279
0.595114
0.618007
0.641476
0.665529
0.690175
0.715422
0.741278
0.767754
0.794857
0.822597
0.850983
0.880023
0.909725
0.940098
0.971148
1.00288
1.03531
1.06843
1.10225
1.13677
1.172
1.20794
1.24459
1.28195
1.32001
1.35877
1.39823
1.43838
1.47921
1.52071
1.56287
1.60566
1.64909
1.69312
1.73774
1.78293
1.82865
1.87489
1.92161
1.96878
2.01638
2.06435
2.11268
2.16131
2.21022
2.25935
2.30866
2.3581
2.40764
2.45722
2.5068
2.55631
2.60572
2.65496
2.70398
2.75272
2.80112
2.84912
2.89667
2.9437
2.99015
3.03596
3.08107
3.12542
3.16894
3.21156
3.25322
3.29386
3.3334
3.37179
3.40895
3.44482
3.47933
3.51243
3.54403
3.57408
3.60251
3.62927
3.65428
3.6775
3.69885
3.7183
3.7358
3.75128
3.76473
3.77609
3.78534
3.79247
3.79742
3.80003
3.80059
3.79898
3.79519
3.78925
3.78118
3.77102
3.75883
3.74468
3.72863
3.71076
3.69116
3.66992
3.64714
3.62295
3.59743
3.57072
3.54293
3.51419
3.48463
3.45437
3.42354
3.39227
3.36069
3.32893
3.29711
3.26536
3.23378
3.2025
3.17161
3.14122
3.11143
3.08231
3.05393
3.02637
2.99966
2.97386
2.94899
2.92506
2.90208
2.88003
2.85891
2.83869
2.81936
2.80093
2.78344
2.76699
2.75171
2.73782
2.7244
2.70948
0.036414
0.0712695
0.0903308
0.103753
0.114672
0.124251
0.133074
0.141495
0.14975
0.158006
0.166388
0.174989
0.183875
0.193097
0.20269
0.212682
0.223094
0.233946
0.245252
0.257028
0.269286
0.282039
0.295297
0.309069
0.323363
0.338186
0.353543
0.36944
0.38588
0.402867
0.420405
0.438498
0.457148
0.476362
0.496141
0.516493
0.537421
0.558932
0.581032
0.603729
0.627031
0.650948
0.675487
0.70066
0.726477
0.752949
0.780086
0.807901
0.836403
0.865604
0.895516
0.926149
0.957513
0.98962
1.02248
1.0561
1.09048
1.12565
1.16159
1.19833
1.23585
1.27418
1.3133
1.35322
1.39394
1.43545
1.47776
1.52084
1.5647
1.60932
1.6547
1.7008
1.74762
1.79514
1.84333
1.89217
1.94163
1.99168
2.04228
2.09341
2.14502
2.19708
2.24954
2.30236
2.3555
2.4089
2.46251
2.51628
2.57017
2.62411
2.67805
2.73194
2.7857
2.83928
2.89262
2.94564
2.9983
3.05051
3.10222
3.15336
3.20386
3.25366
3.30268
3.35087
3.39815
3.44445
3.4897
3.53384
3.5768
3.61849
3.65887
3.69785
3.73537
3.77136
3.80575
3.83847
3.86947
3.89866
3.926
3.95141
3.97483
3.99622
4.01552
4.03267
4.04764
4.06038
4.07085
4.07904
4.08492
4.08835
4.08947
4.08827
4.08472
4.07881
4.07059
4.0601
4.04738
4.03251
4.01555
3.99658
3.97569
3.95297
3.92853
3.90247
3.87492
3.84599
3.81582
3.78451
3.75222
3.71907
3.68519
3.65073
3.61581
3.58057
3.54514
3.50965
3.47421
3.43895
3.40399
3.36942
3.33535
3.30187
3.26906
3.237
3.20575
3.17535
3.14586
3.11729
3.08968
3.06303
3.03735
3.01266
2.98898
2.96636
2.94486
2.92464
2.90584
2.88868
2.87231
2.85515
0.0407568
0.0769682
0.0972701
0.111598
0.123258
0.133479
0.142869
0.151794
0.160501
0.169166
0.177921
0.186865
0.196076
0.205611
0.215514
0.225817
0.236547
0.247724
0.259366
0.271486
0.284097
0.297211
0.310838
0.324987
0.339666
0.354882
0.370643
0.386954
0.40382
0.421249
0.439246
0.457817
0.476968
0.496706
0.517037
0.53797
0.559512
0.581673
0.60446
0.627885
0.651958
0.676691
0.702095
0.728183
0.754969
0.782465
0.810686
0.839646
0.869357
0.899834
0.931092
0.963143
0.996
1.02968
1.06419
1.09954
1.13574
1.17281
1.21076
1.24958
1.2893
1.3299
1.3714
1.4138
1.4571
1.50129
1.54637
1.59234
1.63918
1.68689
1.73545
1.78483
1.83504
1.88603
1.93778
1.99027
2.04347
2.09733
2.15183
2.20693
2.26258
2.31873
2.37534
2.43236
2.48974
2.54742
2.60534
2.66344
2.72168
2.77997
2.83827
2.8965
2.9546
3.01249
3.0701
3.12738
3.18423
3.24059
3.2964
3.35157
3.40603
3.45972
3.51257
3.56449
3.61541
3.66527
3.71399
3.7615
3.80773
3.8526
3.89604
3.93799
3.97837
4.01711
4.05414
4.0894
4.12282
4.15433
4.18386
4.21135
4.23674
4.25998
4.28099
4.29974
4.31618
4.33025
4.34192
4.35116
4.35795
4.3622
4.36394
4.3632
4.35993
4.35412
4.34581
4.33504
4.32187
4.30636
4.28857
4.26858
4.24648
4.22236
4.19632
4.16848
4.13895
4.10785
4.07532
4.04147
4.00645
3.9704
3.93345
3.89573
3.8574
3.81859
3.77943
3.74006
3.7006
3.66118
3.62193
3.58295
3.54436
3.50625
3.46873
3.43187
3.39575
3.36044
3.32599
3.29247
3.2599
3.22833
3.1978
3.16836
3.14006
3.11299
3.08726
3.06303
3.04047
3.01979
3.00019
2.98036
0.0445926
0.0815043
0.102782
0.117851
0.13013
0.140897
0.150779
0.16015
0.169261
0.178291
0.187376
0.196622
0.206109
0.215901
0.226045
0.236582
0.247538
0.258939
0.270802
0.283144
0.295978
0.309315
0.323167
0.337544
0.352455
0.367908
0.383911
0.400472
0.417601
0.435304
0.45359
0.472468
0.491948
0.512037
0.532747
0.554087
0.576069
0.598704
0.622005
0.645984
0.670655
0.696032
0.722131
0.748967
0.776557
0.804918
0.834065
0.864017
0.89479
0.926401
0.958867
0.992205
1.02643
1.06156
1.09761
1.13459
1.17252
1.21141
1.25127
1.29211
1.33394
1.37677
1.4206
1.46544
1.51128
1.55812
1.60597
1.6548
1.70462
1.75541
1.80715
1.85983
1.91342
1.96789
2.02323
2.07939
2.13634
2.19404
2.25245
2.31153
2.37122
2.43148
2.49225
2.55347
2.61509
2.67703
2.73925
2.80166
2.86421
2.92682
2.98942
3.05194
3.1143
3.17642
3.23823
3.29964
3.36059
3.42098
3.48075
3.53981
3.5981
3.65552
3.71201
3.76748
3.82187
3.87509
3.92708
3.97775
4.02703
4.07486
4.12115
4.16583
4.20884
4.25011
4.28956
4.32713
4.36275
4.39636
4.42789
4.45727
4.48444
4.50935
4.53193
4.55214
4.56991
4.58521
4.598
4.60822
4.61587
4.62088
4.62325
4.62297
4.62003
4.61433
4.60596
4.59496
4.5814
4.56532
4.54678
4.52585
4.50262
4.47719
4.44964
4.4201
4.38867
4.35548
4.32065
4.28431
4.24661
4.20768
4.16766
4.12669
4.08492
4.04249
3.99955
3.95622
3.91264
3.86895
3.82528
3.78173
3.73845
3.69553
3.65308
3.61121
3.57
3.52954
3.48991
3.45118
3.41342
3.3767
3.3411
3.30669
3.27357
3.24186
3.21171
3.18329
3.1568
3.13243
3.10941
3.08681
0.0478834
0.0849377
0.106943
0.122593
0.135369
0.146585
0.156879
0.16663
0.176088
0.185435
0.194807
0.204309
0.214025
0.224021
0.234349
0.24505
0.256157
0.267695
0.279686
0.292147
0.305092
0.318536
0.332491
0.346968
0.36198
0.377535
0.393645
0.410319
0.427569
0.445405
0.463839
0.482882
0.502546
0.522844
0.543788
0.565393
0.587672
0.61064
0.634313
0.658707
0.683838
0.709726
0.736389
0.763846
0.792118
0.821224
0.851185
0.882022
0.913754
0.946404
0.979991
1.01453
1.05005
1.08657
1.1241
1.16266
1.20227
1.24294
1.28469
1.32753
1.37147
1.41651
1.46267
1.50995
1.55835
1.60786
1.65849
1.71021
1.76304
1.81694
1.8719
1.92789
1.9849
2.0429
2.10184
2.16169
2.22242
2.28397
2.34631
2.40937
2.47311
2.53746
2.60236
2.66775
2.73356
2.79973
2.86617
2.93281
2.99958
3.0664
3.13319
3.19987
3.26635
3.33254
3.39837
3.46375
3.52859
3.59281
3.65632
3.71905
3.7809
3.8418
3.90167
3.96043
4.01799
4.07428
4.12923
4.18276
4.23478
4.28524
4.33405
4.38115
4.42647
4.46993
4.51148
4.55105
4.58857
4.62398
4.6572
4.68819
4.71688
4.74322
4.76713
4.78858
4.8075
4.82385
4.83759
4.84868
4.85708
4.86277
4.86571
4.86586
4.86325
4.85766
4.84925
4.83807
4.82416
4.80757
4.78835
4.76658
4.74233
4.71568
4.68673
4.6556
4.62238
4.58719
4.55017
4.51144
4.47114
4.42941
4.38639
4.34223
4.29706
4.25105
4.20433
4.15704
4.10933
4.06133
4.01318
3.96502
3.91696
3.86913
3.82165
3.77465
3.72822
3.68247
3.63751
3.59343
3.55033
3.50832
3.4675
3.42799
3.38992
3.35345
3.31874
3.28602
3.25546
3.22729
3.20077
3.17524
0.0506223
0.0873552
0.109861
0.125943
0.139097
0.150662
0.161283
0.171341
0.181083
0.19069
0.200296
0.210005
0.219901
0.23005
0.240506
0.251312
0.262501
0.274103
0.286141
0.298634
0.3116
0.325055
0.339013
0.353487
0.368492
0.384039
0.400143
0.416817
0.434075
0.45193
0.470397
0.489491
0.509228
0.529622
0.550691
0.572452
0.594921
0.618119
0.642063
0.666773
0.692272
0.718581
0.745724
0.773724
0.802605
0.832391
0.863107
0.894779
0.927429
0.961082
0.995763
1.03149
1.0683
1.1062
1.14522
1.18537
1.22668
1.26917
1.31285
1.35773
1.40382
1.45114
1.49969
1.54948
1.6005
1.65275
1.70623
1.76092
1.81681
1.87389
1.93213
1.99151
2.05199
2.11354
2.17612
2.23969
2.3042
2.36961
2.43585
2.50287
2.57061
2.63899
2.70795
2.77742
2.84732
2.91758
2.9881
3.05881
3.12963
3.20046
3.27122
3.34182
3.41217
3.48218
3.55175
3.62079
3.68921
3.75693
3.82385
3.88988
3.95494
4.01894
4.0818
4.14344
4.20378
4.26273
4.32021
4.37616
4.4305
4.48316
4.53406
4.58314
4.63033
4.67557
4.71879
4.75994
4.79894
4.83575
4.8703
4.90252
4.93238
4.9598
4.98473
5.00712
5.02692
5.04409
5.05857
5.07034
5.07935
5.08557
5.08897
5.08949
5.08722
5.08173
5.07328
5.06193
5.04772
5.03069
5.01089
4.98837
4.9632
4.93546
4.90525
4.87266
4.83779
4.80077
4.7617
4.72072
4.67797
4.63357
4.58769
4.54045
4.492
4.44251
4.3921
4.34094
4.28916
4.23691
4.18433
4.13156
4.07875
4.02602
3.97351
3.92135
3.86967
3.8186
3.76826
3.71879
3.6703
3.62293
3.57684
3.53217
3.48909
3.4478
3.40849
3.3714
3.33673
3.30469
3.27464
3.24618
0.0528223
0.0888608
0.11166
0.128034
0.141454
0.153268
0.164129
0.174413
0.184369
0.194172
0.203952
0.213812
0.223834
0.234083
0.244613
0.255467
0.266682
0.278288
0.290309
0.302767
0.31568
0.329066
0.342943
0.357329
0.372241
0.387695
0.403708
0.420297
0.437478
0.455271
0.473693
0.492762
0.512499
0.532923
0.554052
0.575909
0.598514
0.621888
0.646052
0.671034
0.696861
0.723561
0.751162
0.779692
0.809181
0.839655
0.871145
0.903678
0.937284
0.97199
1.00782
1.04481
1.08298
1.12236
1.16296
1.20482
1.24795
1.29237
1.3381
1.38515
1.43354
1.48327
1.53435
1.58678
1.64056
1.69569
1.75214
1.80992
1.869
1.92935
1.99096
2.05378
2.11779
2.18293
2.24918
2.31647
2.38475
2.45396
2.52405
2.59493
2.66655
2.73883
2.81169
2.88505
2.95883
3.03293
3.10728
3.18177
3.25632
3.33083
3.40521
3.47936
3.55318
3.62658
3.69946
3.77171
3.84326
3.91399
3.98382
4.05265
4.12039
4.18697
4.25228
4.31626
4.37881
4.43986
4.49933
4.55715
4.61323
4.66753
4.71996
4.77046
4.81897
4.86544
4.90981
4.95201
4.99199
5.0297
5.06509
5.0981
5.12868
5.15677
5.18234
5.20532
5.22567
5.24335
5.25831
5.27052
5.27995
5.28654
5.29027
5.29109
5.28908
5.2837
5.27519
5.26369
5.24923
5.23183
5.21153
5.18838
5.16243
5.13376
5.10245
5.06858
5.03225
4.99358
4.95267
4.90965
4.86464
4.81779
4.76923
4.71911
4.66757
4.61478
4.56087
4.50599
4.4503
4.39394
4.33707
4.27984
4.22238
4.16485
4.1074
4.05018
3.99333
3.937
3.88134
3.82652
3.77268
3.72
3.66866
3.61885
3.57079
3.52469
3.48079
3.43933
3.40055
3.36468
3.33112
3.2998
0.0545045
0.0895456
0.112463
0.129006
0.142584
0.154545
0.165553
0.175982
0.186076
0.196004
0.205895
0.215848
0.22594
0.236236
0.246788
0.257639
0.268826
0.280381
0.292333
0.304707
0.317513
0.330773
0.344511
0.358751
0.373513
0.38882
0.404691
0.421148
0.438213
0.455907
0.474253
0.493275
0.512997
0.53344
0.554629
0.576588
0.599341
0.622911
0.647315
0.672597
0.698795
0.725942
0.754072
0.783217
0.813413
0.84469
0.877082
0.910621
0.945339
0.981268
1.01844
1.05688
1.09662
1.13769
1.18011
1.2239
1.26909
1.3157
1.36373
1.41321
1.46414
1.51652
1.57037
1.62568
1.68244
1.74063
1.80025
1.86128
1.92368
1.98743
2.0525
2.11884
2.18641
2.25516
2.32504
2.39598
2.46794
2.54083
2.61459
2.68914
2.76441
2.84031
2.91676
2.99367
3.07095
3.14849
3.22622
3.30403
3.38181
3.45947
3.53692
3.61405
3.69075
3.76693
3.84248
3.9173
3.99129
4.06436
4.13641
4.20734
4.27707
4.3455
4.41256
4.47815
4.5422
4.60463
4.66537
4.72433
4.78146
4.83669
4.88995
4.9412
4.99037
5.03741
5.08227
5.1249
5.16526
5.2033
5.23897
5.27223
5.30302
5.33131
5.35706
5.38021
5.40074
5.41858
5.43372
5.4461
5.45569
5.46246
5.46638
5.46738
5.46559
5.46029
5.45172
5.44011
5.42545
5.40778
5.3871
5.36345
5.33689
5.30747
5.27526
5.24034
5.20279
5.16271
5.12022
5.07541
5.02842
4.97937
4.92841
4.87568
4.82133
4.76549
4.70834
4.65
4.59065
4.53043
4.46949
4.40801
4.34612
4.284
4.2218
4.1597
4.09785
4.03643
3.97561
3.91559
3.85654
3.79868
3.74221
3.68738
3.63444
3.58363
3.53522
3.48948
3.44667
3.40704
3.37004
3.33593
0.0556753
0.0894705
0.112346
0.128933
0.142566
0.154588
0.165669
0.176169
0.18633
0.196317
0.206255
0.216238
0.226342
0.236629
0.247148
0.257945
0.269057
0.28052
0.292365
0.304628
0.317306
0.330432
0.344032
0.358132
0.372757
0.387933
0.403684
0.420035
0.437013
0.454643
0.472953
0.491969
0.511723
0.532242
0.553555
0.57569
0.59868
0.62256
0.647336
0.673075
0.699818
0.727605
0.756478
0.786475
0.817639
0.850004
0.883602
0.91847
0.95464
0.99215
1.03103
1.07132
1.11304
1.15621
1.20087
1.24702
1.29469
1.3439
1.39465
1.44695
1.50081
1.55623
1.61319
1.6717
1.73173
1.79326
1.85627
1.92073
1.98661
2.05385
2.12243
2.19229
2.26338
2.33564
2.409
2.48341
2.55878
2.63505
2.71214
2.78996
2.86843
2.94746
3.02695
3.10683
3.18698
3.26731
3.34772
3.4281
3.50836
3.58839
3.66809
3.74735
3.82607
3.90415
3.98148
4.05796
4.13349
4.20798
4.28132
4.35343
4.42421
4.49357
4.56144
4.62773
4.69237
4.75529
4.8164
4.87564
4.93295
4.98826
5.04154
5.09272
5.14176
5.18861
5.23323
5.27558
5.31564
5.35334
5.38867
5.42157
5.45202
5.47998
5.50542
5.52829
5.54857
5.56622
5.58119
5.59344
5.60296
5.6097
5.61364
5.61474
5.61309
5.60789
5.59927
5.58759
5.57282
5.55498
5.53407
5.51011
5.48314
5.4532
5.42035
5.38465
5.34618
5.30501
5.26124
5.21498
5.16634
5.11544
5.06243
5.00743
4.9506
4.89208
4.83201
4.77056
4.70788
4.64412
4.57945
4.51403
4.44802
4.38161
4.31495
4.24825
4.18168
4.11543
4.04972
3.98474
3.92072
3.85789
3.79652
3.73687
3.67919
3.62373
3.57085
3.52087
3.47405
3.43071
3.39038
3.35381
0.0565229
0.0889895
0.11166
0.128193
0.141797
0.153801
0.164857
0.175336
0.185475
0.19544
0.205353
0.215304
0.225366
0.235599
0.246053
0.256769
0.267787
0.279138
0.290853
0.302953
0.315463
0.328419
0.341852
0.355795
0.370278
0.385333
0.400993
0.41729
0.434256
0.451925
0.470334
0.489523
0.509531
0.530384
0.552107
0.57474
0.598319
0.62287
0.648405
0.675018
0.702769
0.731704
0.761865
0.793293
0.826022
0.860093
0.895544
0.932411
0.970729
1.01054
1.05188
1.09478
1.13924
1.1853
1.23296
1.28224
1.33314
1.38567
1.43984
1.49563
1.55305
1.61207
1.67267
1.73484
1.79855
1.86375
1.93042
1.99851
2.06797
2.13876
2.21082
2.28408
2.3585
2.43399
2.51049
2.58793
2.66623
2.74531
2.82509
2.90548
2.98638
3.06772
3.14939
3.23131
3.31336
3.39546
3.4775
3.55938
3.641
3.72225
3.80303
3.88324
3.96278
4.04154
4.11943
4.19635
4.27219
4.34686
4.42028
4.49235
4.56297
4.63207
4.69958
4.76541
4.8295
4.89178
4.95217
5.01061
5.06704
5.12142
5.17372
5.22387
5.27185
5.31761
5.36114
5.40239
5.44134
5.47797
5.51224
5.54413
5.57359
5.60063
5.62522
5.64732
5.6669
5.68393
5.69837
5.71019
5.71936
5.72585
5.72965
5.73074
5.72919
5.72407
5.71544
5.70375
5.68897
5.67109
5.65012
5.62605
5.5989
5.56871
5.5355
5.49932
5.46024
5.41831
5.37362
5.32626
5.27633
5.22396
5.16927
5.11238
5.05345
4.99262
4.93003
4.86584
4.80019
4.73326
4.66521
4.59621
4.52643
4.45607
4.3853
4.31432
4.24335
4.17259
4.10224
4.03251
3.9637
3.89606
3.82992
3.76558
3.70341
3.64379
3.58693
3.53318
3.48284
3.43625
3.39305
3.35424
0.056981
0.0879166
0.110197
0.126552
0.140027
0.151922
0.162879
0.173266
0.183322
0.193208
0.203042
0.212911
0.222885
0.233023
0.243373
0.253978
0.264878
0.276108
0.287705
0.299703
0.312145
0.325062
0.33849
0.352467
0.36703
0.382217
0.398072
0.414647
0.43197
0.450077
0.469015
0.488829
0.509556
0.531162
0.553745
0.577369
0.602095
0.627987
0.655101
0.683489
0.713204
0.744293
0.776801
0.810769
0.846231
0.883223
0.921776
0.961919
1.00368
1.04707
1.09212
1.13883