/*--------------------------------*- C++ -*----------------------------------*\
| =========                 |                                                 |
| \\      /  F ield         | OpenFOAM: The Open Source CFD Toolbox           |
|  \\    /   O peration     | Version:  2406                                  |
|   \\  /    A nd           | Website:  www.openfoam.com                      |
|    \\/     M anipulation  |                                                 |
\*---------------------------------------------------------------------------*/
FoamFile
{
    version     2.0;
    format      ascii;
    arch        "LSB;label=32;scalar=64";
    class       volScalarField;
    location    "200";
    object      nut;
}
// * * * * * * * * * * * * * * * * * * * * * * * * * * * * * * * * * * * * * //

dimensions      [0 2 -1 0 0 0 0];

internalField   nonuniform List<scalar> 
12225
(
2.70744e-05
3.55746e-05
4.05231e-05
4.31922e-05
4.44515e-05
4.49642e-05
4.49776e-05
4.47475e-05
4.45663e-05
4.42014e-05
4.38557e-05
4.35245e-05
4.32275e-05
4.29458e-05
4.27115e-05
4.24759e-05
4.23126e-05
4.20939e-05
0.000212994
8.46412e-05
5.59086e-05
4.40566e-05
3.83777e-05
3.53512e-05
3.38594e-05
3.30689e-05
3.28611e-05
3.28719e-05
3.32204e-05
3.35989e-05
3.42338e-05
3.47945e-05
3.55857e-05
3.62368e-05
3.70752e-05
3.77592e-05
0.000656977
0.000306545
0.000194002
0.000142114
0.000113222
9.44972e-05
8.20284e-05
7.33128e-05
6.68028e-05
6.19614e-05
5.80449e-05
5.51106e-05
5.2538e-05
5.07049e-05
4.8926e-05
4.77709e-05
4.6674e-05
4.53046e-05
0.000863005
0.000609446
0.000451597
0.000350877
0.000289282
0.000246511
0.000216677
0.000194303
0.000177762
0.000164295
0.000154047
0.000145069
0.000138198
0.000131738
0.000126866
0.000121946
0.000118624
0.000113458
0.000877434
0.000776402
0.000690831
0.000591966
0.000517303
0.000458108
0.000413473
0.000377236
0.000349673
0.000325968
0.000307906
0.000291303
0.000278929
0.000266601
0.000257875
0.00024828
0.000241971
0.000233871
0.000858412
0.00083529
0.000807272
0.000753114
0.000699376
0.000648255
0.000604831
0.000565867
0.000534209
0.000505362
0.000482499
0.000460725
0.000444092
0.000427089
0.000414962
0.000401199
0.00039231
0.000380471
0.000854258
0.000849542
0.00084071
0.000823039
0.000798597
0.000768467
0.00073918
0.000709552
0.00068336
0.000657724
0.000636211
0.000614799
0.000597712
0.000579792
0.000566538
0.000551272
0.000541032
0.000527284
0.000852389
0.000851592
0.000849791
0.000844527
0.000835946
0.000824519
0.000810178
0.000793463
0.000777244
0.000760013
0.000744562
0.000728291
0.000714571
0.000699768
0.000688176
0.000674808
0.000665223
0.000652488
0.000851903
0.00085148
0.000851079
0.000849881
0.000847545
0.000843617
0.000838592
0.000831271
0.000823647
0.00081499
0.000806299
0.000796552
0.000787797
0.00077807
0.000769845
0.000760534
0.000752946
0.000743838
0.000851815
0.000851374
0.000851074
0.000850609
0.000850035
0.000848809
0.000847331
0.000844858
0.000841998
0.000838304
0.000834502
0.000829863
0.000825423
0.000820273
0.000815567
0.000810303
0.000805526
0.000799742
0.000851799
0.000851357
0.000851021
0.000850624
0.000850325
0.000849824
0.000849338
0.000848518
0.000847605
0.000846261
0.000844873
0.000843009
0.000841201
0.000838883
0.000836818
0.000834105
0.00083204
0.000828844
0.000851792
0.000851359
0.000851001
0.000850611
0.000850306
0.000849938
0.000849631
0.00084921
0.000848815
0.000848234
0.000847676
0.000846876
0.000846138
0.000845093
0.000844214
0.000842916
0.000841976
0.000840425
0.000851787
0.000851362
0.000850989
0.000850608
0.00085028
0.000849936
0.000849645
0.000849319
0.000849041
0.000848698
0.000848399
0.000848002
0.000847659
0.00084718
0.000846787
0.000846212
0.000845772
0.000845101
0.000851783
0.000851364
0.00085098
0.000850605
0.000850263
0.000849926
0.000849622
0.000849316
0.000849043
0.000848759
0.000848507
0.000848233
0.000847991
0.000847715
0.000847473
0.000847186
0.000846937
0.000846636
0.000851781
0.000851364
0.000850974
0.0008506
0.000850251
0.000849916
0.000849603
0.0008493
0.000849018
0.000848744
0.000848489
0.000848238
0.000848005
0.000847773
0.000847557
0.000847341
0.000847137
0.000846933
0.00085178
0.000851363
0.00085097
0.000850596
0.000850243
0.000849906
0.000849589
0.000849286
0.000848999
0.000848724
0.000848464
0.000848214
0.000847977
0.000847749
0.000847532
0.000847323
0.000847124
0.000846932
0.000851779
0.000851362
0.000850967
0.000850592
0.000850236
0.000849899
0.000849579
0.000849274
0.000848984
0.000848707
0.000848444
0.000848192
0.000847952
0.000847722
0.000847503
0.000847292
0.000847091
0.000846898
0.000851779
0.000851362
0.000850966
0.00085059
0.000850233
0.000849894
0.000849572
0.000849266
0.000848974
0.000848696
0.00084843
0.000848177
0.000847935
0.000847703
0.000847482
0.00084727
0.000847066
0.000846872
0.000851779
0.000851362
0.000850965
0.000850589
0.000850232
0.000849892
0.00084957
0.000849263
0.00084897
0.000848691
0.000848425
0.00084817
0.000847927
0.000847694
0.000847472
0.000847258
0.000847054
0.000846859
0.000851779
0.000851363
0.000850966
0.000850591
0.000850234
0.000849895
0.000849573
0.000849266
0.000848974
0.000848695
0.000848428
0.000848174
0.00084793
0.000847697
0.000847473
0.000847259
0.000847052
0.000846855
0.000851779
0.000851364
0.000850968
0.000850595
0.000850238
0.000849902
0.000849579
0.000849274
0.000848979
0.0008487
0.000848427
0.000848168
0.000847911
0.000847667
0.00084742
0.000847188
0.000846947
0.000846723
0.000851778
0.000851368
0.000850969
0.000850603
0.000850243
0.000849911
0.000849573
0.000849254
0.000848916
0.000848587
0.000848223
0.000847865
0.000847456
0.00084706
0.000846596
0.00084616
0.000845637
0.00084517
0.000851779
0.000851382
0.000850972
0.000850624
0.000850209
0.000849789
0.000849234
0.000848616
0.000847803
0.000846896
0.000845768
0.00084456
0.000843125
0.000841663
0.000839958
0.000838332
0.000836384
0.000834697
0.000851855
0.000851468
0.000850932
0.000850395
0.000849126
0.000847458
0.000844947
0.00084194
0.000838072
0.000833848
0.00082896
0.000823928
0.000818451
0.000812995
0.000807275
0.000801723
0.000795837
0.000790768
0.000852784
0.000851382
0.000849188
0.000845095
0.000836885
0.000827817
0.000815749
0.000802823
0.000788373
0.000774367
0.00075966
0.000746075
0.000732115
0.000719678
0.000706813
0.000695835
0.000684078
0.000674684
0.000858211
0.000842301
0.000828961
0.000803013
0.000769258
0.000735475
0.000700803
0.000669704
0.000639497
0.000613591
0.00058861
0.000567741
0.00054731
0.000530651
0.000513857
0.0005006
0.000486555
0.000476053
0.000864338
0.000785615
0.000712709
0.000628299
0.000558282
0.000503084
0.000455746
0.000418866
0.000386622
0.00036159
0.00033876
0.000321223
0.000304409
0.000291765
0.000278904
0.00026954
0.000259359
0.000252293
0.000775957
0.000540064
0.000397941
0.000312964
0.000258156
0.000219634
0.000190505
0.000169564
0.000152551
0.00013999
0.000129093
0.000121015
0.000113525
0.000108073
0.00010263
9.88077e-05
9.46832e-05
9.19103e-05
0.000323582
0.000164841
0.000111417
8.60759e-05
7.08265e-05
6.13546e-05
5.50183e-05
5.08855e-05
4.79532e-05
4.60097e-05
4.45906e-05
4.36882e-05
4.30395e-05
4.26951e-05
4.24556e-05
4.24396e-05
4.24365e-05
4.26232e-05
3.26574e-05
3.90519e-05
4.3892e-05
4.69716e-05
4.93655e-05
5.11699e-05
5.25343e-05
5.34594e-05
5.4114e-05
5.44633e-05
5.46905e-05
5.46972e-05
5.46541e-05
5.45498e-05
5.43769e-05
5.41695e-05
5.39444e-05
5.37078e-05
3.82783e-06
1.04532e-05
1.24095e-05
1.38935e-05
1.49907e-05
1.58051e-05
1.64343e-05
1.69948e-05
1.74842e-05
1.79371e-05
1.83716e-05
1.88167e-05
1.92839e-05
1.98222e-05
2.04607e-05
2.11816e-05
2.19353e-05
2.27222e-05
2.35268e-05
2.43658e-05
2.52274e-05
2.61272e-05
2.7051e-05
2.80108e-05
2.89913e-05
3.00029e-05
3.10323e-05
3.2088e-05
3.31483e-05
3.42208e-05
3.52926e-05
3.63714e-05
3.74466e-05
3.8525e-05
3.95973e-05
4.06708e-05
4.17364e-05
4.28039e-05
4.38676e-05
4.49386e-05
4.60145e-05
4.71092e-05
4.82271e-05
4.93346e-05
5.04407e-05
5.1547e-05
5.2649e-05
5.37529e-05
5.48526e-05
5.59548e-05
5.70532e-05
5.8154e-05
5.92515e-05
6.03511e-05
6.14477e-05
6.25465e-05
6.36421e-05
6.47395e-05
6.58336e-05
6.69292e-05
6.80211e-05
6.91138e-05
7.02024e-05
7.12913e-05
7.23755e-05
7.34591e-05
7.45372e-05
7.56139e-05
7.66844e-05
7.77525e-05
7.88134e-05
7.98709e-05
8.09203e-05
8.19652e-05
8.30009e-05
8.40309e-05
8.50507e-05
8.60634e-05
8.70649e-05
8.80583e-05
8.90392e-05
9.00106e-05
9.09686e-05
9.19158e-05
9.28482e-05
9.37684e-05
9.46726e-05
9.55628e-05
9.64359e-05
9.72932e-05
9.81332e-05
9.89542e-05
9.97549e-05
0.000100534
0.00010129
0.000102022
0.000102728
0.000103409
0.000104064
0.00010471
0.000105326
0.000105922
0.000106493
0.00010704
0.000107562
0.000108059
0.00010853
0.000108974
0.000109391
0.00010978
0.000110141
0.000110474
0.000110776
0.000111048
0.00011129
0.0001115
0.000111678
0.000111824
0.000111938
0.000112017
0.000112063
0.000112075
0.000112053
0.000111996
0.000111906
0.000111781
0.000111625
0.000111416
0.000111174
0.000110914
0.000110622
0.000110286
0.000109919
0.000109517
0.000109084
0.000108618
0.000108122
0.000107595
0.000107037
0.000106449
0.000105835
0.000105195
0.000104531
0.000103846
0.000103141
0.000102417
0.000101677
0.000100923
0.000100156
9.93796e-05
9.85944e-05
9.78045e-05
9.70099e-05
9.62151e-05
9.54204e-05
9.46301e-05
9.38444e-05
9.30677e-05
9.23006e-05
9.15464e-05
9.08067e-05
9.00866e-05
8.93859e-05
8.87146e-05
8.81291e-05
8.80667e-05
8.79178e-05
8.74152e-05
8.70787e-05
8.67739e-05
8.64777e-05
8.62209e-05
8.59933e-05
8.57952e-05
8.56229e-05
8.5446e-05
8.52869e-05
8.5137e-05
8.48628e-05
8.35714e-05
6.02638e-06
2.8865e-05
6.17118e-05
8.72388e-05
0.000104384
0.000115294
0.000121802
0.000125492
0.000128091
0.000130442
0.000132852
0.000135341
0.000137792
0.000140063
0.000142119
0.000144067
0.000146003
0.000147997
0.000150105
0.000152387
0.000154892
0.000157667
0.000160741
0.000164138
0.000167863
0.000171921
0.000176308
0.000181037
0.000186091
0.000191428
0.000197001
0.000202816
0.000208896
0.000215236
0.000221813
0.000228617
0.00023557
0.000242628
0.000249761
0.000256949
0.000264176
0.000271445
0.000278782
0.00028618
0.000293644
0.000301179
0.000308786
0.000316467
0.000324223
0.000332058
0.000339972
0.000347969
0.00035605
0.000364219
0.000372477
0.000380827
0.00038927
0.00039781
0.000406447
0.000415183
0.000424019
0.000432956
0.000441995
0.000451136
0.00046038
0.000469725
0.000479172
0.000488719
0.000498365
0.000508108
0.000517946
0.000527877
0.000537898
0.000548008
0.000558201
0.000568476
0.000578827
0.00058925
0.000599742
0.0006103
0.000620917
0.000631591
0.000642316
0.00065309
0.000663906
0.000674761
0.000685649
0.000696569
0.000707516
0.000718489
0.000729486
0.000740498
0.000751513
0.000762515
0.000773476
0.000784345
0.000795029
0.000805378
0.000815161
0.000824375
0.000833547
0.000842598
0.000851533
0.000860345
0.000869024
0.000877561
0.000885946
0.000894168
0.000902217
0.000910082
0.000917753
0.000925217
0.000932464
0.00093948
0.000946255
0.000952776
0.000959032
0.000965009
0.000970696
0.00097608
0.000981149
0.000985894
0.000990306
0.000994382
0.000998127
0.00100157
0.00100479
0.00100726
0.00100918
0.00101109
0.00101277
0.0010139
0.00101464
0.00101499
0.00101496
0.00101455
0.00101377
0.00101263
0.00101115
0.00100932
0.00100716
0.00100468
0.0010019
0.00099884
0.000995509
0.000991932
0.000988127
0.000984117
0.000979924
0.000975573
0.000971083
0.000966484
0.000961798
0.000957053
0.000952273
0.000947489
0.000942722
0.000938003
0.000933355
0.000928804
0.000924372
0.000920084
0.000915949
0.000911988
0.00090822
0.000904603
0.000898988
0.000893014
0.000887675
0.00088247
0.00087771
0.000873001
0.000868399
0.000863894
0.000859378
0.000854774
0.000849967
0.000844697
0.000836656
0.000813068
7.52396e-06
4.57242e-05
9.82356e-05
0.000142159
0.000175161
0.000198974
0.000215815
0.000227663
0.000236263
0.000242921
0.000248499
0.00025351
0.000258231
0.000262818
0.000267388
0.000272054
0.000276916
0.000282056
0.000287545
0.000293447
0.000299819
0.000306708
0.000314145
0.000322147
0.000330715
0.000339828
0.000349446
0.00035961
0.000370436
0.000382012
0.000394182
0.000406762
0.000419709
0.000432983
0.000446544
0.000460354
0.000474369
0.000488563
0.000502919
0.000517426
0.000532076
0.000546871
0.000561813
0.000576891
0.000592088
0.00060743
0.000622922
0.000638565
0.000654363
0.000670319
0.000686437
0.00070272
0.000719171
0.000735794
0.000752592
0.000769568
0.000786725
0.000804066
0.000821592
0.000839303
0.0008572
0.000875283
0.000893552
0.000912004
0.000930638
0.000949452
0.000968442
0.000987605
0.00100694
0.00102643
0.00104608
0.00106589
0.00108584
0.00110592
0.00112614
0.00114648
0.00116694
0.00118749
0.00120815
0.00122889
0.00124971
0.00127059
0.00129154
0.00131252
0.00133355
0.0013546
0.00137566
0.00139673
0.00141779
0.00143882
0.00145982
0.00148076
0.00150161
0.00152233
0.00154288
0.00156319
0.00158317
0.00160274
0.00162183
0.00164055
0.00165908
0.00167737
0.00169542
0.0017132
0.00173069
0.00174788
0.00176475
0.00178128
0.00179743
0.00181321
0.00182857
0.00184351
0.00185799
0.001872
0.0018855
0.00189849
0.00191092
0.00192279
0.00193406
0.00194472
0.00195473
0.00196409
0.00197277
0.00198077
0.00198807
0.00199469
0.00200092
0.002006
0.0020098
0.00201325
0.00201624
0.00201828
0.00201951
0.00201996
0.00201962
0.00201851
0.00201665
0.00201405
0.00201073
0.00200672
0.00200204
0.00199672
0.00199078
0.00198426
0.0019772
0.00196965
0.00196163
0.0019532
0.00194439
0.00193526
0.00192586
0.00191623
0.00190643
0.00189651
0.00188652
0.00187651
0.00186654
0.00185666
0.00184692
0.00183736
0.00182803
0.00181898
0.00181022
0.00180178
0.00179362
0.00178547
0.00177591
0.00176621
0.001757
0.00174809
0.00173961
0.00173134
0.00172324
0.00171524
0.00170702
0.00169878
0.00169055
0.00168057
0.00166525
0.00162765
8.53517e-06
6.18611e-05
0.000129872
0.00018663
0.000230602
0.000263411
0.000287574
0.000305387
0.000318787
0.00032931
0.0003381
0.000345961
0.000353427
0.000360845
0.000368443
0.000376375
0.000384753
0.000393661
0.000403166
0.000413323
0.000424177
0.00043576
0.000448096
0.000461195
0.000475064
0.000489709
0.000505145
0.000521304
0.000538023
0.000555142
0.000572654
0.000590605
0.000608969
0.000627705
0.000646772
0.000666129
0.000685733
0.000705547
0.000725597
0.000745882
0.0007664
0.000787161
0.000808186
0.000829515
0.000851068
0.00087283
0.000894803
0.000916989
0.000939392
0.000962017
0.000984868
0.00100795
0.00103126
0.00105481
0.00107859
0.00110262
0.0011269
0.00115142
0.00117619
0.00120122
0.00122649
0.00125201
0.00127778
0.00130378
0.00133003
0.0013565
0.0013832
0.00141013
0.00143726
0.0014646
0.00149214
0.00151986
0.00154776
0.00157582
0.00160404
0.0016324
0.00166089
0.00168949
0.00171819
0.00174698
0.00177585
0.00180477
0.00183373
0.00186272
0.00189172
0.00192072
0.00194969
0.00197861
0.00200747
0.00203624
0.00206491
0.00209343
0.00212178
0.00214991
0.00217778
0.00220533
0.00223251
0.00225924
0.00228556
0.00231153
0.0023372
0.00236253
0.00238752
0.00241212
0.00243633
0.00246011
0.00248343
0.00250628
0.00252862
0.00255043
0.00257168
0.00259234
0.00261238
0.00263176
0.00265047
0.00266846
0.00268572
0.00270219
0.00271787
0.0027327
0.00274668
0.00275976
0.00277193
0.00278316
0.00279345
0.00280277
0.00281147
0.00281896
0.00282471
0.00282965
0.00283393
0.00283701
0.00283897
0.00283983
0.00283961
0.00283831
0.00283595
0.00283256
0.00282817
0.00282279
0.00281647
0.00280923
0.00280113
0.0027922
0.0027825
0.00277208
0.002761
0.00274932
0.00273709
0.00272438
0.00271127
0.00269782
0.00268409
0.00267017
0.00265613
0.00264203
0.00262796
0.00261399
0.00260019
0.00258661
0.00257334
0.00256041
0.00254788
0.00253577
0.00252406
0.00251252
0.00250041
0.00248833
0.00247664
0.00246534
0.00245449
0.00244397
0.0024337
0.00242358
0.00241357
0.00240371
0.00239343
0.00238091
0.00236209
0.00232276
9.25333e-06
7.57331e-05
0.000157286
0.000224927
0.000278156
0.000318727
0.000349392
0.000372678
0.0003907
0.000405171
0.000417418
0.000428429
0.000438903
0.000449321
0.000460001
0.000471151
0.000482908
0.000495362
0.000508576
0.000522591
0.000537434
0.000553118
0.000569646
0.000587007
0.000605182
0.000624138
0.00064383
0.00066419
0.000685134
0.000706598
0.00072855
0.000750972
0.000773833
0.000797103
0.000820751
0.000844754
0.000869101
0.000893788
0.000918769
0.000944026
0.00096955
0.000995331
0.00102135
0.00104759
0.00107405
0.00110076
0.00112774
0.00115498
0.0011825
0.00121029
0.00123836
0.00126671
0.00129534
0.00132426
0.00135345
0.00138293
0.00141269
0.00144276
0.00147312
0.00150377
0.00153471
0.00156594
0.00159745
0.00162923
0.00166129
0.0016936
0.00172617
0.00175898
0.00179202
0.00182529
0.00185876
0.00189244
0.00192629
0.00196031
0.00199449
0.0020288
0.00206324
0.00209778
0.0021324
0.00216709
0.00220184
0.00223661
0.0022714
0.00230617
0.00234092
0.00237562
0.00241024
0.00244477
0.00247917
0.00251343
0.00254752
0.0025814
0.00261505
0.00264842
0.00268148
0.00271419
0.00274653
0.00277849
0.00281007
0.00284126
0.00287207
0.00290249
0.00293248
0.00296202
0.00299109
0.00301965
0.00304767
0.00307514
0.00310201
0.00312826
0.00315385
0.00317875
0.00320294
0.00322637
0.00324901
0.00327083
0.00329179
0.00331185
0.00333099
0.00334915
0.00336632
0.00338246
0.00339754
0.00341152
0.00342439
0.00343612
0.00344706
0.00345676
0.00346459
0.00347114
0.00347689
0.00348128
0.00348433
0.00348606
0.00348649
0.00348561
0.00348346
0.00348005
0.00347542
0.00346959
0.00346259
0.00345448
0.00344529
0.00343508
0.00342391
0.00341183
0.00339892
0.00338524
0.00337086
0.00335586
0.00334032
0.00332433
0.00330796
0.00329132
0.00327448
0.00325753
0.00324057
0.00322368
0.00320695
0.00319047
0.0031743
0.00315853
0.00314321
0.00312838
0.00311406
0.0031001
0.00308617
0.00307247
0.0030592
0.00304641
0.00303413
0.0030223
0.00301084
0.00299962
0.00298865
0.00297786
0.00296673
0.00295363
0.00293448
0.0028984
9.78957e-06
8.76565e-05
0.000180661
0.000258017
0.000319505
0.00036734
0.000404264
0.000432953
0.000455653
0.000474208
0.000490077
0.000504379
0.000517936
0.000531334
0.000544971
0.000559112
0.000573924
0.000589513
0.000605942
0.000623244
0.000641433
0.000660507
0.000680452
0.000701241
0.000722842
0.000745209
0.000768292
0.000792036
0.000816384
0.00084129
0.000866718
0.000892635
0.000919012
0.000945819
0.000973028
0.00100062
0.00102857
0.00105687
0.00108548
0.0011144
0.00114362
0.00117312
0.0012029
0.00123295
0.00126327
0.00129389
0.0013248
0.00135601
0.00138752
0.00141934
0.00145147
0.0014839
0.00151666
0.00154972
0.00158312
0.00161684
0.00165087
0.00168522
0.00171987
0.00175482
0.00179007
0.00182562
0.00186145
0.00189755
0.00193393
0.00197056
0.00200745
0.00204457
0.00208191
0.00211947
0.00215722
0.00219516
0.00223327
0.00227153
0.00230992
0.00234843
0.00238704
0.00242573
0.00246448
0.00250327
0.00254209
0.0025809
0.0026197
0.00265846
0.00269715
0.00273576
0.00277426
0.00281263
0.00285084
0.00288886
0.00292668
0.00296426
0.00300157
0.00303859
0.00307529
0.00311164
0.00314763
0.00318325
0.00321847
0.00325329
0.00328769
0.00332165
0.00335515
0.00338817
0.00342066
0.00345261
0.00348399
0.00351477
0.00354491
0.00357439
0.00360317
0.00363122
0.00365851
0.003685
0.00371065
0.00373543
0.0037593
0.00378222
0.00380415
0.00382506
0.0038449
0.00386364
0.00388125
0.00389769
0.00391292
0.00392692
0.00393997
0.00395181
0.00396184
0.00397021
0.00397766
0.00398364
0.00398815
0.00399119
0.00399275
0.00399286
0.00399152
0.00398877
0.00398462
0.0039791
0.00397225
0.00396412
0.00395474
0.00394418
0.00393248
0.00391972
0.00390597
0.00389129
0.00387577
0.00385949
0.00384255
0.00382502
0.00380701
0.00378862
0.00376994
0.00375108
0.00373214
0.00371321
0.0036944
0.00367581
0.00365752
0.00363963
0.00362221
0.00360532
0.00358899
0.00357317
0.00355773
0.0035427
0.0035282
0.00351428
0.00350096
0.00348821
0.003476
0.00346425
0.00345292
0.00344191
0.00343079
0.00341828
0.00340092
0.00337071
1.04116e-05
9.5537e-05
0.000198478
0.000285144
0.000354645
0.000409668
0.000452865
0.000487036
0.000514541
0.000537322
0.000556941
0.000574616
0.000591268
0.000607569
0.00062399
0.000640851
0.00065836
0.000676644
0.000695777
0.000715794
0.000736705
0.000758501
0.000781161
0.000804654
0.00082894
0.000853976
0.000879714
0.000906105
0.000933105
0.000960672
0.00098877
0.00101737
0.00104643
0.00107593
0.00110585
0.00113617
0.00116685
0.00119789
0.00122927
0.00126097
0.00129298
0.0013253
0.00135792
0.00139085
0.00142408
0.00145761
0.00149146
0.00152562
0.00156009
0.00159489
0.00163
0.00166544
0.0017012
0.00173728
0.00177369
0.00181042
0.00184747
0.00188482
0.00192248
0.00196045
0.0019987
0.00203725
0.00207607
0.00211517
0.00215452
0.00219413
0.00223397
0.00227404
0.00231432
0.0023548
0.00239547
0.0024363
0.00247729
0.00251841
0.00255965
0.00260099
0.00264241
0.00268389
0.00272542
0.00276697
0.00280852
0.00285005
0.00289154
0.00293298
0.00297433
0.00301557
0.00305668
0.00309764
0.00313843
0.00317901
0.00321937
0.00325948
0.00329932
0.00333886
0.00337807
0.00341695
0.00345546
0.0034936
0.00353134
0.00356867
0.00360557
0.00364203
0.003678
0.00371348
0.00374844
0.00378284
0.00381666
0.00384987
0.00388245
0.00391436
0.00394557
0.00397604
0.00400575
0.00403466
0.00406274
0.00408993
0.00411621
0.00414154
0.00416587
0.00418917
0.0042114
0.0042325
0.00425245
0.00427121
0.00428873
0.00430497
0.00432018
0.00433414
0.00434645
0.00435697
0.00436633
0.00437419
0.00438051
0.00438523
0.00438836
0.00438991
0.0043899
0.00438833
0.00438524
0.00438065
0.00437459
0.00436709
0.0043582
0.00434798
0.00433647
0.00432375
0.00430988
0.00429493
0.004279
0.00426217
0.00424453
0.00422618
0.00420722
0.00418776
0.00416789
0.00414774
0.00412741
0.00410701
0.00408666
0.00406647
0.00404653
0.00402695
0.00400782
0.00398922
0.0039712
0.00395378
0.00393692
0.00392064
0.00390498
0.00389001
0.00387574
0.00386219
0.00384933
0.00383715
0.0038256
0.00381462
0.00380387
0.00379234
0.00377735
0.00375321
1.11615e-05
9.96563e-05
0.000210857
0.00030634
0.000383639
0.000445793
0.000495274
0.000534988
0.000567384
0.000594487
0.000617936
0.000639025
0.000658753
0.000677863
0.000696894
0.00071622
0.000736091
0.000756665
0.000778037
0.000800252
0.000823327
0.000847256
0.000872019
0.000897587
0.000923921
0.000950982
0.000978725
0.00100711
0.00103609
0.00106563
0.0010957
0.00112626
0.00115729
0.00118876
0.00122065
0.00125294
0.0012856
0.00131862
0.00135199
0.00138569
0.00141971
0.00145405
0.00148869
0.00152364
0.00155891
0.00159448
0.00163036
0.00166656
0.00170308
0.00173991
0.00177705
0.00181452
0.0018523
0.00189039
0.0019288
0.00196751
0.00200653
0.00204586
0.00208547
0.00212537
0.00216556
0.00220602
0.00224674
0.00228772
0.00232895
0.00237041
0.0024121
0.002454
0.0024961
0.00253839
0.00258084
0.00262346
0.00266621
0.00270909
0.00275208
0.00279515
0.0028383
0.00288151
0.00292474
0.002968
0.00301125
0.00305447
0.00309765
0.00314076
0.00318379
0.0032267
0.00326949
0.00331212
0.00335458
0.00339683
0.00343887
0.00348067
0.0035222
0.00356344
0.00360437
0.00364497
0.00368523
0.00372512
0.00376463
0.00380374
0.00384243
0.00388067
0.00391845
0.00395575
0.00399253
0.00402878
0.00406446
0.00409955
0.00413403
0.00416786
0.00420102
0.00423348
0.00426519
0.00429614
0.00432627
0.00435556
0.00438397
0.00441145
0.00443797
0.00446348
0.00448794
0.0045113
0.00453353
0.00455457
0.00457439
0.00459293
0.0046104
0.00462658
0.00464123
0.00465416
0.00466571
0.00467575
0.00468419
0.00469093
0.00469599
0.00469938
0.00470111
0.00470119
0.00469962
0.00469643
0.00469165
0.0046853
0.00467743
0.00466807
0.00465728
0.00464513
0.00463168
0.004617
0.00460119
0.00458431
0.00456648
0.00454778
0.00452833
0.00450824
0.0044876
0.00446656
0.00444521
0.00442368
0.00440209
0.00438057
0.00435922
0.00433817
0.00431751
0.00429734
0.00427776
0.0042588
0.00424048
0.00422285
0.00420595
0.00418984
0.00417455
0.00416011
0.00414654
0.00413387
0.00412208
0.00411115
0.00410085
0.00409039
0.00407774
0.00405896
1.18156e-05
0.000101931
0.000219427
0.00032255
0.000407017
0.000475945
0.00053154
0.000576725
0.000613996
0.00064543
0.000672716
0.000697207
0.000719958
0.000741772
0.000763243
0.000784799
0.000806733
0.00082924
0.00085244
0.000876399
0.000901146
0.000926686
0.000953008
0.000980093
0.00100791
0.00103642
0.00106559
0.00109536
0.00112572
0.00115661
0.00118802
0.0012199
0.00125224
0.00128501
0.00131819
0.00135176
0.00138571
0.00142001
0.00145466
0.00148965
0.00152494
0.00156054
0.00159644
0.00163263
0.00166913
0.00170591
0.001743
0.00178039
0.00181808
0.00185607
0.00189435
0.00193294
0.00197183
0.00201101
0.00205049
0.00209026
0.00213031
0.00217065
0.00221126
0.00225215
0.0022933
0.00233471
0.00237637
0.00241828
0.00246042
0.00250279
0.00254538
0.00258817
0.00263115
0.00267431
0.00271765
0.00276114
0.00280477
0.00284853
0.0028924
0.00293637
0.00298042
0.00302452
0.00306868
0.00311286
0.00315704
0.00320122
0.00324536
0.00328945
0.00333347
0.0033774
0.00342121
0.00346489
0.00350841
0.00355175
0.00359489
0.00363782
0.00368049
0.00372291
0.00376504
0.00380687
0.00384838
0.00388954
0.00393035
0.00397078
0.0040108
0.00405041
0.00408958
0.00412829
0.00416651
0.00420423
0.00424143
0.00427806
0.00431412
0.00434958
0.00438441
0.00441857
0.00445205
0.0044848
0.0045168
0.004548
0.00457837
0.00460788
0.00463647
0.00466411
0.00469074
0.00471634
0.00474084
0.0047642
0.00478637
0.00480731
0.00482715
0.00484569
0.00486278
0.00487831
0.00489234
0.00490485
0.0049157
0.00492477
0.00493208
0.00493765
0.00494147
0.00494355
0.0049439
0.00494251
0.00493942
0.00493463
0.00492819
0.00492012
0.00491047
0.00489931
0.00488668
0.00487267
0.00485735
0.00484082
0.00482315
0.00480445
0.00478484
0.00476441
0.00474328
0.00472159
0.00469944
0.00467698
0.00465433
0.00463161
0.00460896
0.0045865
0.00456436
0.00454265
0.00452147
0.00450091
0.00448103
0.0044619
0.00444359
0.00442615
0.00440965
0.00439415
0.00437972
0.00436639
0.00435423
0.00434323
0.00433328
0.00432379
0.00431322
0.00429878
1.23661e-05
0.000102906
0.000224958
0.000334404
0.000425317
0.00050034
0.000561739
0.000612184
0.00065419
0.000689854
0.000720897
0.000748705
0.000774375
0.000798756
0.00082249
0.000846049
0.000869769
0.000893882
0.000918544
0.000943843
0.000969819
0.000996485
0.00102384
0.00105192
0.00108071
0.00111015
0.0011402
0.00117082
0.00120197
0.00123363
0.00126577
0.00129836
0.00133138
0.00136481
0.00139862
0.00143281
0.00146735
0.00150225
0.00153749
0.00157309
0.00160897
0.00164511
0.00168152
0.00171819
0.00175513
0.00179234
0.00182981
0.00186756
0.00190559
0.00194388
0.00198246
0.0020213
0.00206042
0.00209982
0.00213949
0.00217943
0.00221963
0.0022601
0.00230084
0.00234183
0.00238308
0.00242458
0.00246633
0.00250832
0.00255055
0.002593
0.00263568
0.00267857
0.00272167
0.00276496
0.00280844
0.00285209
0.00289591
0.00293987
0.00298398
0.00302821
0.00307254
0.00311697
0.00316148
0.00320604
0.00325065
0.00329527
0.0033399
0.00338452
0.0034291
0.00347362
0.00351806
0.0035624
0.00360662
0.0036507
0.00369461
0.00373833
0.00378185
0.00382514
0.00386818
0.00391095
0.00395343
0.00399559
0.00403743
0.00407892
0.00412004
0.00416078
0.0042011
0.004241
0.00428046
0.00431945
0.00435795
0.00439594
0.0044334
0.00447031
0.00450664
0.00454236
0.00457746
0.00461189
0.00464564
0.00467865
0.00471091
0.00474237
0.00477298
0.00480271
0.00483151
0.00485934
0.00488614
0.00491186
0.00493647
0.00495989
0.00498222
0.00500326
0.00502295
0.00504122
0.00505799
0.0050732
0.00508676
0.00509841
0.00510825
0.00511629
0.00512251
0.00512693
0.00512952
0.00513028
0.00512922
0.00512635
0.00512169
0.00511526
0.00510711
0.00509727
0.00508581
0.0050728
0.00505829
0.00504239
0.00502517
0.00500674
0.0049872
0.00496667
0.00494525
0.00492309
0.0049003
0.00487702
0.00485339
0.00482955
0.00480563
0.00478179
0.00475814
0.00473483
0.00471199
0.00468973
0.00466815
0.00464734
0.0046274
0.00460842
0.0045905
0.00457374
0.00455821
0.00454403
0.00453128
0.00452003
0.00451024
0.0045015
0.00449267
0.00448203
1.28207e-05
0.000102866
0.000227958
0.000342448
0.000438985
0.000519377
0.000586038
0.000641364
0.000687822
0.000727495
0.000762105
0.000793056
0.000821468
0.000848226
0.000874009
0.000899323
0.000924536
0.000949913
0.000975699
0.00100198
0.0010288
0.00105616
0.00108404
0.00111254
0.00114166
0.00117138
0.00120165
0.00123246
0.00126378
0.00129558
0.00132782
0.00136051
0.0013936
0.00142709
0.00146095
0.00149516
0.00152972
0.00156462
0.00159986
0.00163544
0.00167118
0.00170713
0.0017433
0.00177969
0.00181628
0.00185309
0.00189013
0.00192741
0.00196492
0.00200268
0.00204068
0.00207893
0.00211743
0.00215618
0.00219519
0.00223445
0.00227397
0.00231375
0.00235379
0.00239409
0.00243465
0.00247547
0.00251656
0.0025579
0.0025995
0.00264136
0.00268347
0.00272583
0.00276843
0.00281127
0.00285434
0.00289763
0.00294113
0.00298483
0.00302873
0.0030728
0.00311703
0.00316141
0.00320593
0.00325056
0.00329528
0.00334009
0.00338495
0.00342985
0.00347476
0.00351967
0.00356455
0.00360938
0.00365414
0.0036988
0.00374334
0.00378773
0.00383196
0.003876
0.00391982
0.00396341
0.00400675
0.00404981
0.00409257
0.00413502
0.00417713
0.00421889
0.00426027
0.00430127
0.00434185
0.00438201
0.00442173
0.00446098
0.00449975
0.00453802
0.00457576
0.00461297
0.0046496
0.00468564
0.00472106
0.00475584
0.00478992
0.00482329
0.00485589
0.0048877
0.00491866
0.00494872
0.00497784
0.00500597
0.00503306
0.00505906
0.00508395
0.00510765
0.00513009
0.00515124
0.00517094
0.00518906
0.00520562
0.00522006
0.00523267
0.00524343
0.00525234
0.00525936
0.0052645
0.00526771
0.005269
0.00526836
0.0052658
0.00526133
0.00525498
0.00524678
0.00523679
0.00522505
0.00521165
0.00519664
0.00518013
0.0051622
0.00514296
0.00512252
0.00510099
0.00507851
0.0050552
0.00503121
0.00500669
0.00498177
0.00495662
0.00493138
0.00490621
0.00488126
0.00485667
0.0048326
0.00480917
0.00478653
0.00476478
0.00474406
0.0047245
0.00470623
0.0046894
0.00467414
0.00466058
0.00464885
0.00463899
0.00463072
0.00462324
0.00461553
1.31881e-05
0.000102022
0.000228819
0.000347107
0.000448274
0.00053328
0.000604564
0.000664262
0.000714753
0.000758077
0.000795944
0.000829751
0.000860625
0.000889467
0.000917036
0.000943839
0.000970234
0.000996454
0.00102284
0.00104953
0.00107661
0.00110416
0.00113225
0.00116092
0.00119011
0.00121978
0.00124993
0.00128052
0.00131152
0.00134293
0.0013747
0.00140683
0.00143928
0.00147206
0.00150515
0.00153853
0.00157215
0.00160608
0.00164032