/*--------------------------------*- C++ -*----------------------------------*\
| =========                 |                                                 |
| \\      /  F ield         | OpenFOAM: The Open Source CFD Toolbox           |
|  \\    /   O peration     | Version:  2406                                  |
|   \\  /    A nd           | Website:  www.openfoam.com                      |
|    \\/     M anipulation  |                                                 |
\*---------------------------------------------------------------------------*/
FoamFile
{
    version     2.0;
    format      ascii;
    arch        "LSB;label=32;scalar=64";
    class       volScalarField;
    location    "200";
    object      p;
}
// * * * * * * * * * * * * * * * * * * * * * * * * * * * * * * * * * * * * * //

dimensions      [0 2 -2 0 0 0 0];

internalField   nonuniform List<scalar> 
12225
(
-2.74765
-4.90488
-5.99748
-6.31124
-6.48806
-6.66684
-6.81496
-6.92663
-7.01827
-7.10127
-7.17867
-7.25154
-7.32157
-7.39076
-7.46162
-7.53362
-7.62134
-7.67516
-5.87788
-6.66555
-6.87046
-6.7825
-6.75749
-6.82179
-6.90491
-6.97925
-7.04877
-7.11806
-7.18671
-7.2538
-7.31989
-7.38618
-7.45435
-7.5257
-7.60505
-7.70801
-6.25789
-6.19185
-6.31132
-6.39839
-6.50678
-6.64931
-6.78414
-6.89463
-6.98867
-7.07435
-7.15414
-7.22892
-7.30023
-7.36985
-7.43978
-7.51125
-7.58906
-7.67195
-6.13058
-6.04314
-6.30239
-6.49452
-6.61705
-6.73833
-6.85195
-6.94636
-7.02754
-7.10277
-7.17436
-7.24274
-7.3089
-7.3741
-7.43969
-7.50639
-7.57535
-7.64123
-6.12216
-6.1367
-6.38372
-6.54875
-6.64172
-6.7402
-6.84248
-6.93295
-7.01304
-7.08815
-7.16006
-7.22891
-7.29537
-7.3604
-7.42489
-7.48905
-7.55245
-7.6113
-6.18321
-6.22826
-6.41478
-6.55479
-6.645
-6.74114
-6.84172
-6.93217
-7.01249
-7.08736
-7.15867
-7.22669
-7.29201
-7.3554
-7.41746
-7.47805
-7.53634
-7.58947
-6.24581
-6.28806
-6.4321
-6.56246
-6.65657
-6.75036
-6.84641
-6.9341
-7.01271
-7.08598
-7.15572
-7.22224
-7.28596
-7.34743
-7.40696
-7.46421
-7.51825
-7.56675
-6.30133
-6.33852
-6.45604
-6.5769
-6.67047
-6.75964
-6.85016
-6.93464
-7.01143
-7.08318
-7.15144
-7.21653
-7.27871
-7.33832
-7.39545
-7.44971
-7.5002
-7.54519
-6.3531
-6.38694
-6.48452
-6.59338
-6.6835
-6.76814
-6.85365
-6.93493
-7.00981
-7.07991
-7.14657
-7.21008
-7.27057
-7.32821
-7.38299
-7.4345
-7.482
-7.52424
-6.40219
-6.43279
-6.51419
-6.61082
-6.69641
-6.77691
-6.85772
-6.93556
-7.00817
-7.07637
-7.14121
-7.20295
-7.26161
-7.31724
-7.36974
-7.41876
-7.46376
-7.50382
-6.4484
-6.47552
-6.54396
-6.62932
-6.7097
-6.78606
-6.86231
-6.93651
-7.00655
-7.07266
-7.13552
-7.19534
-7.25207
-7.30567
-7.35601
-7.4028
-7.44567
-7.48397
-6.48794
-6.51196
-6.57091
-6.64701
-6.72214
-6.7946
-6.86683
-6.93763
-7.00515
-7.06918
-7.13011
-7.18808
-7.24299
-7.29475
-7.34323
-7.38818
-7.42936
-7.46631
-6.52427
-6.54565
-6.59678
-6.66466
-6.73449
-6.80303
-6.87144
-6.9389
-7.00381
-7.06569
-7.12465
-7.18073
-7.23383
-7.28382
-7.33054
-7.37383
-7.41354
-7.44934
-6.56203
-6.5808
-6.62467
-6.68441
-6.74834
-6.81242
-6.87667
-6.94041
-7.0023
-7.06164
-7.1183
-7.17224
-7.2233
-7.27133
-7.3162
-7.35779
-7.39604
-7.43073
-6.59972
-6.61595
-6.65334
-6.70542
-6.76314
-6.82234
-6.88218
-6.94193
-7.00044
-7.05691
-7.11099
-7.16254
-7.21138
-7.25734
-7.30032
-7.34022
-7.37704
-7.41068
-6.63503
-6.64893
-6.6808
-6.72606
-6.77771
-6.83188
-6.88725
-6.94293
-6.99787
-7.05124
-7.10258
-7.15161
-7.19814
-7.24201
-7.28312
-7.3214
-7.35688
-7.38952
-6.66458
-6.67655
-6.70402
-6.74364
-6.78991
-6.83939
-6.89054
-6.94236
-6.99384
-7.04416
-7.09277
-7.13934
-7.18365
-7.22553
-7.26489
-7.3017
-7.33598
-7.36775
-6.68337
-6.69396
-6.71837
-6.754
-6.79626
-6.84206
-6.88984
-6.93852
-6.98713
-7.03486
-7.08114
-7.12561
-7.16803
-7.20823
-7.24614
-7.28173
-7.31502
-7.34606
-6.68368
-6.69364
-6.71672
-6.75066
-6.79119
-6.8353
-6.88138
-6.92842
-6.97548
-7.02176
-7.06667
-7.10987
-7.15112
-7.1903
-7.22733
-7.2622
-7.29494
-7.32561
-6.65944
-6.66992
-6.6942
-6.72994
-6.77233
-6.81788
-6.86499
-6.91284
-6.96054
-7.00729
-7.0525
-7.09586
-7.13718
-7.17637
-7.21336
-7.24818
-7.28086
-7.31151
-6.62516
-6.63654
-6.6633
-6.70291
-6.74917
-6.79771
-6.84725
-6.89727
-6.94683
-6.99499
-7.04127
-7.08547
-7.12747
-7.1672
-7.20463
-7.23982
-7.27284
-7.30381
-6.58283
-6.59493
-6.62548
-6.67174
-6.72366
-6.77579
-6.82837
-6.88155
-6.9339
-6.98419
-7.03208
-7.07753
-7.12051
-7.16096
-7.19893
-7.23451
-7.2678
-7.29896
-6.53587
-6.54728
-6.58234
-6.63865
-6.69827
-6.75444
-6.81032
-6.86685
-6.92204
-6.97458
-7.02436
-7.07144
-7.11574
-7.15726
-7.19607
-7.23235
-7.26626
-7.29804
-6.48681
-6.49587
-6.53727
-6.60498
-6.67139
-6.73253
-6.79405
-6.8552
-6.91317
-6.96744
-7.01858
-7.06676
-7.11185
-7.15389
-7.19306
-7.2296
-7.26365
-7.29536
-6.43565
-6.43695
-6.49992
-6.58177
-6.64554
-6.7064
-6.77414
-6.84201
-6.90461
-6.96227
-7.01626
-7.06674
-7.11352
-7.15673
-7.19671
-7.23379
-7.2683
-7.30072
-6.38937
-6.34091
-6.45682
-6.57851
-6.64128
-6.69415
-6.75902
-6.82596
-6.88792
-6.94563
-7.00036
-7.05188
-7.09975
-7.14404
-7.18507
-7.22317
-7.25854
-7.29133
-6.40647
-6.20846
-6.34179
-6.52005
-6.62553
-6.70635
-6.78606
-6.85859
-6.92187
-6.97926
-7.03271
-7.08221
-7.12764
-7.16935
-7.20779
-7.24341
-7.27669
-7.30867
-6.54735
-6.2999
-6.2765
-6.33182
-6.41487
-6.52352
-6.63495
-6.7328
-6.81771
-6.89422
-6.96398
-7.02686
-7.08311
-7.13359
-7.17909
-7.22026
-7.25791
-7.29334
-6.27533
-6.90606
-7.0248
-6.88491
-6.79729
-6.80468
-6.84693
-6.89189
-6.93752
-6.98576
-7.03479
-7.08216
-7.12657
-7.16793
-7.20629
-7.24153
-7.274
-7.30506
-3.22088
-4.98798
-6.0013
-6.28285
-6.40936
-6.55211
-6.68206
-6.78278
-6.86505
-6.93826
-7.00449
-7.06361
-7.11619
-7.16316
-7.20522
-7.24256
-7.27531
-7.30194
-8.1007
-8.10049
-8.10088
-8.10202
-8.10363
-8.10545
-8.10736
-8.10938
-8.1115
-8.11374
-8.11612
-8.11869
-8.12148
-8.12455
-8.12793
-8.13166
-8.13576
-8.14029
-8.14528
-8.15079
-8.15686
-8.16354
-8.17088
-8.17894
-8.18775
-8.19738
-8.20786
-8.21923
-8.23151
-8.24474
-8.25891
-8.27405
-8.29013
-8.30716
-8.32508
-8.34391
-8.3636
-8.38416
-8.40557
-8.4278
-8.45076
-8.47436
-8.49851
-8.52316
-8.54827
-8.57381
-8.59971
-8.62594
-8.65244
-8.67917
-8.70605
-8.73304
-8.76006
-8.78705
-8.81392
-8.84062
-8.86702
-8.89306
-8.91862
-8.94363
-8.96794
-8.99146
-9.01404
-9.03557
-9.05589
-9.07488
-9.09235
-9.10819
-9.12217
-9.13417
-9.14397
-9.15141
-9.15626
-9.15836
-9.15747
-9.15341
-9.14593
-9.13484
-9.11987
-9.10084
-9.07747
-9.04957
-9.01687
-8.97917
-8.93621
-8.88778
-8.83359
-8.77345
-8.70709
-8.63431
-8.55493
-8.46872
-8.37549
-8.27511
-8.16754
-8.05279
-7.93074
-7.80095
-7.6629
-7.5165
-7.36183
-7.19894
-7.02781
-6.84847
-6.66091
-6.46518
-6.26135
-6.04951
-5.82979
-5.60237
-5.36743
-5.1252
-4.87595
-4.61995
-4.35754
-4.08907
-3.81493
-3.53554
-3.25134
-2.96279
-2.67036
-2.37458
-2.07598
-1.77511
-1.47251
-1.16872
-0.864279
-0.559752
-0.255674
0.0474527
0.349119
0.64883
0.946119
1.24053
1.53166
1.8191
2.10252
2.38161
2.65611
2.92578
3.1904
3.44983
3.70395
3.9527
4.19606
4.43405
4.66673
4.8942
5.1166
5.33411
5.54693
5.75531
5.95952
6.15988
6.35672
6.55041
6.74133
6.9299
7.11656
7.30175
7.48593
7.66961
7.85323
8.03731
8.22231
8.40874
8.59706
8.7876
8.9804
9.17554
9.37332
9.5741
9.77797
9.98488
10.1947
10.4071
10.6225
10.8403
11.0708
11.3025
-8.1005
-8.10054
-8.10104
-8.10212
-8.10343
-8.10471
-8.1059
-8.10703
-8.10822
-8.10957
-8.11116
-8.11303
-8.1152
-8.11766
-8.12042
-8.12352
-8.12701
-8.13093
-8.13532
-8.14023
-8.14571
-8.15183
-8.15863
-8.16618
-8.17453
-8.18373
-8.19381
-8.20481
-8.21676
-8.22968
-8.24358
-8.25845
-8.2743
-8.29109
-8.3088
-8.3274
-8.34686
-8.36716
-8.38826
-8.41011
-8.43267
-8.45586
-8.47962
-8.5039
-8.52864
-8.55381
-8.57936
-8.60525
-8.63141
-8.6578
-8.68437
-8.71105
-8.73777
-8.76449
-8.7911
-8.81755
-8.84373
-8.86958
-8.89498
-8.91984
-8.94404
-8.96748
-8.99002
-9.01153
-9.03188
-9.05094
-9.06852
-9.0845
-9.09868
-9.11092
-9.121
-9.12877
-9.13402
-9.13655
-9.13616
-9.13265
-9.12578
-9.11535
-9.10112
-9.08287
-9.06036
-9.03338
-9.00168
-8.96504
-8.92322
-8.876
-8.82311
-8.76435
-8.69948
-8.62829
-8.55061
-8.46622
-8.37492
-8.2765
-8.1708
-8.05758
-7.93657
-7.80767
-7.67092
-7.5263
-7.37366
-7.2129
-7.04398
-6.86685
-6.68154
-6.48808
-6.28652
-6.07696
-5.85952
-5.63435
-5.40165
-5.16162
-4.91451
-4.66061
-4.40023
-4.13372
-3.86145
-3.58384
-3.30131
-3.01431
-2.72332
-2.42884
-2.13141
-1.83158
-1.52988
-1.22685
-0.923014
-0.618936
-0.315164
-0.0121992
0.289452
0.589298
0.886861
1.18169
1.47337
1.76149
2.04571
2.32571
2.60121
2.87198
3.13778
3.39845
3.65386
3.90395
4.14868
4.38806
4.62214
4.851
5.07478
5.29363
5.50776
5.7174
5.92281
6.12431
6.32219
6.51684
6.70862
6.89794
7.08523
7.27093
7.45549
7.6394
7.82314
8.0072
8.19206
8.37816
8.56591
8.75562
8.94738
9.14136
9.33795
9.53747
9.74007
9.94575
10.1545
10.3661
10.5815
10.7998
11.0337
11.2598
-8.09691
-8.09768
-8.09898
-8.10038
-8.10153
-8.10233
-8.10287
-8.1033
-8.10376
-8.10436
-8.10517
-8.10626
-8.10768
-8.10946
-8.11163
-8.11422
-8.11727
-8.12082
-8.12491
-8.12959
-8.13491
-8.14093
-8.14769
-8.15524
-8.16361
-8.17285
-8.18297
-8.194
-8.20596
-8.21885
-8.23266
-8.24739
-8.26303
-8.27956
-8.29696
-8.3152
-8.33425
-8.35408
-8.37465
-8.39593
-8.41788
-8.44044
-8.46357
-8.48722
-8.51134
-8.5359
-8.56084
-8.58612
-8.6117
-8.63752
-8.66353
-8.68967
-8.71587
-8.74208
-8.76821
-8.7942
-8.81995
-8.84539
-8.87042
-8.89493
-8.91883
-8.94198
-8.96428
-8.9856
-9.0058
-9.02473
-9.04225
-9.05821
-9.07242
-9.08474
-9.09497
-9.10294
-9.10844
-9.1113
-9.1113
-9.10824
-9.1019
-9.09206
-9.0785
-9.061
-9.03933
-9.01326
-8.98255
-8.94699
-8.90632
-8.86034
-8.80878
-8.75144
-8.68807
-8.61848
-8.54249
-8.45989
-8.37047
-8.27405
-8.17044
-8.05939
-7.94064
-7.81405
-7.67962
-7.53734
-7.38712
-7.22885
-7.06248
-6.88797
-6.7053
-6.51451
-6.31565
-6.10881
-5.89408
-5.67163
-5.44162
-5.20426
-4.95979
-4.70848
-4.45064
-4.18658
-3.9167
-3.64137
-3.36101
-3.07608
-2.78702
-2.49436
-2.1986
-1.90028
-1.59995
-1.29815
-0.995379
-0.692184
-0.389123
-0.0867149
0.214541
0.51416
0.811661
1.1066
1.39853
1.68707
1.97184
2.25254
2.52886
2.80055
3.06739
3.32918
3.5858
3.83716
4.08321
4.32394
4.55939
4.78963
5.01478
5.23498
5.45042
5.66131
5.86791
6.07051
6.26941
6.46494
6.6575
6.84744
7.0352
7.2212
7.4059
7.58975
7.77323
7.95681
8.14102
8.3263
8.51305
8.70159
8.89213
9.08488
9.2802
9.47839
9.67964
9.88404
10.0917
10.3027
10.5183
10.7368
10.9736
11.1875
-8.08961
-8.09136
-8.09405
-8.09633
-8.0979
-8.09892
-8.09957
-8.1
-8.10037
-8.10081
-8.10142
-8.10228
-8.10346
-8.105
-8.10696
-8.10938
-8.1123
-8.11576
-8.11982
-8.1245
-8.12987
-8.13595
-8.1428
-8.15044
-8.15891
-8.16822
-8.17841
-8.18947
-8.20142
-8.21425
-8.22795
-8.24253
-8.25796
-8.27424
-8.29134
-8.30923
-8.32789
-8.3473
-8.36741
-8.3882
-8.40962
-8.43165
-8.45424
-8.47735
-8.50095
-8.52498
-8.54941
-8.5742
-8.5993
-8.62466
-8.65022
-8.67593
-8.70173
-8.72756
-8.75334
-8.779
-8.80446
-8.82962
-8.85441
-8.87871
-8.90243
-8.92544
-8.94763
-8.96888
-8.98904
-9.00798
-9.02555
-9.04159
-9.05593
-9.06842
-9.07888
-9.08711
-9.09294
-9.09616
-9.09658
-9.09399
-9.08818
-9.07892
-9.06601
-9.0492
-9.02829
-9.00303
-8.97321
-8.93858
-8.89891
-8.85398
-8.80355
-8.74738
-8.68525
-8.61696
-8.54231
-8.46109
-8.37311
-8.27815
-8.17604
-8.06655
-7.94948
-7.82469
-7.69212
-7.55171
-7.40338
-7.24704
-7.08263
-6.91011
-6.72946
-6.54071
-6.3439
-6.13911
-5.92644
-5.70603
-5.47805
-5.2427
-5.0002
-4.75082
-4.49486
-4.23263
-3.96451
-3.69087
-3.41211
-3.12869
-2.84106
-2.54971
-2.25516
-1.95794
-1.65858
-1.35764
-1.05563
-0.753061
-0.450475
-0.148421
0.152605
0.452119
0.749646
1.04473
1.33694
1.62587
1.91116
2.19247
2.46952
2.74202
3.00975
3.27252
3.53018
3.78264
4.02985
4.27176
4.50844
4.73991
4.9663
5.18773
5.40439
5.61646
5.8242
6.02788
6.22779
6.42425
6.61763
6.80829
6.99664
7.18308
7.36805
7.55202
7.73545
7.91879
8.10249
8.28697
8.47264
8.65987
8.84897
9.04026
9.23404
9.43062
9.63021
9.83295
10.0391
10.2486
10.463
10.6799
10.9146
11.1147
-8.07993
-8.08278
-8.08727
-8.09089
-8.09329
-8.09491
-8.09602
-8.0968
-8.09743
-8.09806
-8.09881
-8.09979
-8.10108
-8.10275
-8.10484
-8.10741
-8.11051
-8.11417
-8.11844
-8.12337
-8.12898
-8.13532
-8.14241
-8.15028
-8.15895
-8.16845
-8.17877
-8.18994
-8.20194
-8.21479
-8.22847
-8.24297
-8.25828
-8.27438
-8.29126
-8.3089
-8.32726
-8.34634
-8.36609
-8.3865
-8.40752
-8.42914
-8.45131
-8.47401
-8.49719
-8.52083
-8.54487
-8.56928
-8.59401
-8.61902
-8.64425
-8.66966
-8.69517
-8.72073
-8.74626
-8.77169
-8.79695
-8.82194
-8.84657
-8.87076
-8.89438
-8.91732
-8.93948
-8.96072
-8.9809
-8.9999
-9.01755
-9.03372
-9.04822
-9.0609
-9.07158
-9.08008
-9.08621
-9.08977
-9.09056
-9.08839
-9.08303
-9.07427
-9.0619
-9.04567
-9.02538
-9.00079
-8.97167
-8.93779
-8.89891
-8.85481
-8.80525
-8.75
-8.68883
-8.62153
-8.54791
-8.46775
-8.38085
-8.287
-8.18602
-8.07771
-7.96189
-7.83842
-7.7072
-7.56815
-7.42117
-7.26619
-7.10315
-6.93199
-6.75272
-6.56534
-6.36989
-6.16645
-5.95513
-5.73604
-5.50936
-5.27527
-5.034
-4.78582
-4.531
-4.26987
-4.00279
-3.73012
-3.45228
-3.1697
-2.88285
-2.5922
-2.29829
-2.00162
-1.70273
-1.40218
-1.10049
-0.798177
-0.49575
-0.193768
0.107259
0.406849
0.704532
0.999843
1.29235
1.58165
1.86738
2.14918
2.42676
2.69986
2.96821
3.23164
3.49
3.74319
3.99112
4.23381
4.47124
4.70348
4.93062
5.15281
5.37018
5.58297
5.79136
5.99566
6.19613
6.39312
6.58692
6.77793
6.96653
7.15314
7.33816
7.52205
7.70523
7.88816
8.07126
8.25497
8.43967
8.62576
8.8136
9.00356
9.19596
9.3911
9.58921
9.79046
9.99509
10.2031
10.4157
10.63
10.8606
11.0479
-8.06987
-8.07373
-8.08003
-8.0851
-8.08851
-8.09093
-8.0927
-8.09404
-8.09515
-8.09618
-8.0973
-8.09863
-8.10024
-8.10222
-8.10464
-8.10754
-8.11098
-8.11499
-8.11962
-8.1249
-8.13086
-8.13754
-8.14494
-8.15311
-8.16205
-8.17177
-8.18228
-8.1936
-8.2057
-8.2186
-8.23228
-8.24673
-8.26196
-8.27794
-8.29465
-8.31208
-8.33022
-8.34904
-8.36852
-8.38863
-8.40935
-8.43066
-8.45253
-8.47491
-8.49779
-8.52112
-8.54488
-8.56901
-8.59348
-8.61824
-8.64323
-8.66842
-8.69374
-8.71912
-8.74449
-8.7698
-8.79494
-8.81985
-8.84442
-8.86856
-8.89216
-8.91512
-8.93732
-8.95862
-8.97889
-8.99801
-9.0158
-9.03213
-9.04683
-9.05974
-9.07067
-9.07944
-9.08587
-9.08977
-9.09093
-9.08914
-9.0842
-9.07589
-9.06399
-9.04827
-9.02851
-9.00448
-8.97595
-8.94268
-8.90445
-8.86102
-8.81216
-8.75763
-8.69721
-8.63069
-8.55787
-8.47853
-8.39246
-8.29946
-8.19934
-8.09192
-7.97702
-7.8545
-7.72425
-7.58616
-7.44014
-7.2861
-7.12399
-6.95376
-6.7754
-6.58891
-6.39435
-6.19177
-5.98128
-5.76301
-5.5371
-5.30376
-5.0632
-4.81567
-4.56147
-4.30091
-4.03435
-3.76215
-3.48472
-3.20249
-2.91594
-2.62555
-2.33183
-2.03531
-1.73651
-1.43599
-1.1343
-0.831946
-0.529437
-0.227318
0.0738882
0.373701
0.671642
0.967249
1.26008
1.54974
1.83583
2.11803
2.39601
2.6695
2.93826
3.2021
3.46086
3.71445
3.96277
4.20583
4.44361
4.67618
4.90362
5.12607
5.34368
5.55665
5.7652
5.96959
6.17009
6.36703
6.56074
6.7516
6.93996
7.12624
7.31085
7.49423
7.6768
7.85903
8.04133
8.22413
8.40783
8.59284
8.77954
8.9683
9.1595
9.35341
9.55029
9.75031
9.95369
10.1603
10.3712
10.5828
10.8092
10.9854
-8.06118
-8.06585
-8.07363
-8.08003
-8.08446
-8.08772
-8.09023
-8.09223
-8.09391
-8.09548
-8.0971
-8.09888
-8.10094
-8.10335
-8.10619
-8.10952
-8.11337
-8.11779
-8.12282
-8.12848
-8.13481
-8.14184
-8.14957
-8.15803
-8.16722
-8.17717
-8.18787
-8.19932
-8.21153
-8.22449
-8.2382
-8.25265
-8.26782
-8.28373
-8.30033
-8.31764
-8.33562
-8.35427
-8.37356
-8.39347
-8.41398
-8.43508
-8.45672
-8.47889
-8.50156
-8.52469
-8.54824
-8.57219
-8.59649
-8.62109
-8.64595
-8.67101
-8.69623
-8.72152
-8.74684
-8.7721
-8.79722
-8.82212
-8.84672
-8.87091
-8.89458
-8.91762
-8.93992
-8.96136
-8.98178
-9.00107
-9.01906
-9.0356
-9.05053
-9.06369
-9.07489
-9.08395
-9.0907
-9.09492
-9.09642
-9.095
-9.09045
-9.08253
-9.07105
-9.05576
-9.03646
-9.0129
-8.98485
-8.95208
-8.91437
-8.87147
-8.82316
-8.76919
-8.70934
-8.64341
-8.57119
-8.49246
-8.40701
-8.31463
-8.21514
-8.10835
-7.9941
-7.87224
-7.74265
-7.60521
-7.45982
-7.3064
-7.14489
-6.97524
-6.79744
-6.6115
-6.41745
-6.21536
-6.00533
-5.78748
-5.56197
-5.32898
-5.08874
-4.84149
-4.58752
-4.32716
-4.06073
-3.78863
-3.51124
-3.22903
-2.94244
-2.65198
-2.35815
-2.06148
-1.7625
-1.46176
-1.15983
-0.857229
-0.554466
-0.252065
0.0494465
0.349584
0.647862
0.943816
1.237
1.527
1.81343
2.09595
2.37425
2.64802
2.91706
3.18114
3.44013
3.69389
3.94238
4.18555
4.42343
4.65604
4.88349
5.10588
5.32339
5.53619
5.74452
5.94861
6.14878
6.34529
6.53851
6.72878
6.91651
7.10206
7.28588
7.46839
7.65004
7.83125
8.0125
8.19418
8.37673
8.56055
8.74605
8.93362
9.12364
9.31639
9.51214
9.71104
9.91327
10.1186
10.3278
10.5368
10.7595
10.9265
-8.05501
-8.06024
-8.06897
-8.07641
-8.08175
-8.08578
-8.089
-8.09163
-8.09392
-8.09605
-8.09819
-8.10048
-8.10301
-8.10589
-8.10918
-8.11294
-8.11721
-8.12204
-8.12746
-8.1335
-8.14018
-8.14753
-8.15556
-8.16429
-8.17372
-8.18388
-8.19474
-8.20634
-8.21865
-8.23169
-8.24544
-8.2599
-8.27507
-8.29093
-8.30749
-8.32472
-8.34261
-8.36115
-8.38032
-8.40011
-8.4205
-8.44146
-8.46297
-8.48502
-8.50756
-8.53058
-8.55403
-8.57789
-8.60211
-8.62665
-8.65146
-8.6765
-8.70169
-8.727
-8.75234
-8.77764
-8.80283
-8.82781
-8.85251
-8.87681
-8.90062
-8.92382
-8.94629
-8.96791
-8.98854
-9.00804
-9.02626
-9.04305
-9.05824
-9.07167
-9.08315
-9.09251
-9.09955
-9.10409
-9.10592
-9.10483
-9.10061
-9.09305
-9.08192
-9.06701
-9.04807
-9.02489
-8.99723
-8.96486
-8.92754
-8.88505
-8.83714
-8.78359
-8.72416
-8.65865
-8.58686
-8.50855
-8.42352
-8.33156
-8.23249
-8.12612
-8.01229
-7.89085
-7.76166
-7.62461
-7.47959
-7.32652
-7.16534
-6.99599
-6.81847
-6.63277
-6.43895
-6.23706
-6.02719
-5.80946
-5.58404
-5.35111
-5.11088
-4.86361
-4.60959
-4.34911
-4.08254
-3.81026
-3.53266
-3.25019
-2.96332
-2.67255
-2.37838
-2.08135
-1.782
-1.48088
-1.17854
-0.875556
-0.572425
-0.269655
0.0322341
0.332747
0.631397
0.927709
1.22123
1.51155
1.79828
2.08106
2.35958
2.63354
2.90273
3.16693
3.42601
3.67982
3.92831
4.17144
4.40922
4.64169
4.86894
5.09108
5.30827
5.52068
5.72856
5.93213
6.1317
6.32755
6.52003
6.70949
6.89633
7.08093
7.26373
7.44515
7.62565
7.80566
7.98565
8.16605
8.3473
8.52982
8.71404
8.90036
9.08915
9.28073
9.47534
9.67313
9.87419
10.0782
10.2857
10.4922
10.7118
10.8713
-8.05191
-8.05739
-8.06656
-8.07465
-8.08067
-8.08534
-8.08916
-8.09237
-8.0952
-8.09785
-8.10049
-8.10325
-8.10625
-8.10956
-8.11327
-8.11743
-8.12209
-8.12729
-8.13305
-8.13942
-8.14641
-8.15405
-8.16234
-8.1713
-8.18094
-8.19127
-8.2023
-8.21402
-8.22644
-8.23955
-8.25336
-8.26786
-8.28304
-8.29891
-8.31545
-8.33265
-8.35051
-8.36901
-8.38813
-8.40787
-8.4282
-8.44911
-8.47057
-8.49257
-8.51507
-8.53806
-8.5615
-8.58535
-8.60957
-8.63414
-8.65899
-8.68408
-8.70934
-8.73473
-8.76017
-8.7856
-8.81092
-8.83606
-8.86091
-8.8854
-8.9094
-8.93281
-8.95549
-8.97734
-8.99821
-9.01795
-9.03643
-9.05348
-9.06893
-9.08263
-9.09439
-9.10403
-9.11136
-9.11619
-9.1183
-9.1175
-9.11357
-9.1063
-9.09546
-9.08084
-9.06219
-9.0393
-9.01192
-8.97984
-8.9428
-8.90059
-8.85296
-8.79969
-8.74053
-8.6753
-8.60377
-8.52573
-8.44095
-8.34924
-8.2504
-8.14427
-8.03066
-7.90943
-7.78043
-7.64356
-7.49869
-7.34575
-7.18466
-7.0154
-6.83792
-6.65224
-6.45841
-6.25647
-6.04652
-5.82869
-5.60312
-5.37001
-5.12956
-4.88204
-4.62772
-4.36692
-4.09999
-3.8273
-3.54928
-3.26636
-2.97903
-2.68778
-2.39312
-2.09559
-1.79574
-1.49411
-1.19128
-0.887827
-0.584264
-0.281084
0.0212039
0.322098
0.621111
0.917758
1.21158
1.50215
1.7891
2.07206
2.3507
2.62475
2.89396
3.15816
3.41716
3.67087
3.91919
4.16211
4.39962
4.63176
4.85861
5.0803
5.29696
5.5088
5.71602
5.9189
6.11768
6.3127
6.50427
6.69277
6.87857
7.06209
7.24372
7.42394
7.60317
7.78189
7.96054
8.13958
8.31947
8.50065
8.68355
8.8686
9.05617
9.24659
9.44007
9.63676
9.83667
10.0394
10.2452
10.4494
10.6663
10.8199
-8.05187
-8.05734
-8.06651
-8.07487
-8.08131
-8.08643
-8.0907
-8.09436
-8.09764
-8.10073
-8.1038
-8.10698
-8.11036
-8.11406
-8.11813
-8.12263
-8.12761
-8.13312
-8.13917
-8.14581
-8.15306
-8.16092
-8.16943
-8.17858
-8.1884
-8.19888
-8.21004
-8.22188
-8.2344
-8.24759
-8.26147
-8.27602
-8.29125
-8.30715
-8.32371
-8.34093
-8.3588
-8.37731
-8.39644
-8.41619
-8.43653
-8.45745
-8.47893
-8.50096
-8.5235
-8.54654
-8.57003
-8.59395
-8.61826
-8.64292
-8.66788
-8.69309
-8.7185
-8.74404
-8.76964
-8.79524
-8.82076
-8.8461
-8.87117
-8.89587
-8.9201
-8.94375
-8.96668
-8.98877
-9.00989
-9.02989
-9.04862
-9.06592
-9.08163
-9.09558
-9.10759
-9.11748
-9.12505
-9.13011
-9.13246
-9.13188
-9.12818
-9.12112
-9.11049
-9.09606
-9.07761
-9.0549
-9.02771
-8.9958
-8.95893
-8.91688
-8.86941
-8.81628
-8.75727
-8.69216
-8.62076
-8.54283
-8.45816
-8.36653
-8.26778
-8.16171
-8.04816
-7.92697
-7.798
-7.66112
-7.51623
-7.36324
-7.20207
-7.03269
-6.85508
-6.66924
-6.47521
-6.27304
-6.06284
-5.84471
-5.61881
-5.38533
-5.14449
-4.89653
-4.64175
-4.38046
-4.11301
-3.83977
-3.56119
-3.27769
-2.98977
-2.69791
-2.40266
-2.10453
-1.8041
-1.5019
-1.19853
-0.894581
-0.590557
-0.286959
0.0157124
0.316971
0.616324
0.913271
1.20734
1.49811
1.78519
2.06823
2.34689
2.6209
2.89001
3.15405
3.41282
3.66624
3.91421
4.15672
4.39375
4.62536
4.85162
5.07266
5.28862
5.49969
5.70609
5.90808
6.10593
6.29996
6.49049
6.67789
6.86254
7.04485
7.22525
7.40417
7.58208
7.75943
7.93671
8.11437
8.29289
8.47272
8.65433
8.83812
9.0245
9.21378
9.40617
9.60177
9.80057
10.002
10.2063
10.4083
10.6229
10.7718
-8.05462
-8.05986
-8.06868
-8.07697
-8.08356
-8.08891
-8.09345
-8.09743
-8.10103
-8.10446
-8.10785
-8.11135
-8.11505
-8.11904
-8.12339
-8.12817
-8.1334
-8.13915
-8.14543
-8.15228
-8.15972
-8.16777
-8.17644
-8.18575
-8.19571
-8.20632
-8.21759
-8.22953
-8.24214
-8.25542
-8.26936
-8.28399
-8.29927
-8.31523
-8.33184
-8.34912
-8.36704
-8.38561
-8.4048
-8.42461
-8.44502
-8.46602
-8.48758
-8.5097
-8.53234
-8.55549
-8.5791
-8.60316
-8.62761
-8.65243
-8.67755
-8.70294
-8.72853
-8.75427
-8.78009
-8.8059
-8.83164
-8.85721
-8.88251
-8.90746
-8.93193
-8.95581
-8.97899
-9.00132
-9.02267
-9.0429
-9.06185
-9.07937
-9.0953
-9.10945
-9.12165
-9.13172
-9.13946
-9.14469
-9.14719
-9.14675
-9.14318
-9.13624
-9.12571
-9.11138
-9.09302
-9.07039
-9.04326
-9.01141
-8.97459
-8.93258
-8.88513
-8.83202
-8.77302
-8.70792
-8.63651
-8.55856
-8.47386
-8.38219
-8.28338
-8.17725
-8.06361
-7.94232
-7.81323
-7.67621
-7.53116
-7.37797
-7.21659
-7.04696
-6.86908
-6.68294
-6.48857
-6.28604
-6.07544
-5.85688
-5.63052
-5.39655
-5.15519
-4.90669
-4.65134
-4.38944
-4.12136
-3.84749
-3.56825
-3.2841
-2.99551
-2.703
-2.40709
-2.10833
-1.80727
-1.50449
-1.20057
-0.896095
-0.591593
-0.287576
0.0154626
0.317045
0.616687
0.91387
1.20812
1.49899
1.78611
2.06909
2.34763
2.62143
2.89027
3.15394
3.41231
3.66524
3.91268
4.15457
4.39094
4.62182
4.8473
5.06749
5.28256
5.49268
5.6981
5.89903
6.0958
6.28868
6.47804
6.66421
6.84761
7.02862
7.2077
7.38527
7.5618
7.73777
7.91367
8.08996
8.26713
8.44566
8.62601
8.80862
8.99386
9.18207
9.37344
9.56803
9.76575
9.96598
10.1688
10.369
10.5815
10.7268
-8.05969
-8.06454
-8.07275
-8.08069
-8.08717
-8.09255
-8.09719
-8.10132
-8.10511
-8.10874
-8.11235
-8.11606
-8.11998
-8.12418
-8.12874
-8.1337
-8.13913
-8.14505
-8.15149
-8.1585
-8.16608
-8.17426
-8.18305
-8.19247
-8.20253
-8.21325
-8.22461
-8.23664
-8.24933
-8.26269
-8.27672
-8.29142
-8.30678
-8.32282
-8.33952
-8.35688
-8.37489
-8.39354
-8.41283
-8.43274
-8.45327
-8.47439
-8.49609
-8.51835
-8.54114
-8.56445
-8.58823
-8.61247
-8.6371
-8.66211
-8.68744
-8.71303
-8.73884
-8.7648
-8.79083
-8.81687
-8.84283
-8.86863
-8.89416
-8.91932
-8.94401
-8.9681
-8.99148
-9.014
-9.03553
-9.05593
-9.07504
-9.09271
-9.10876
-9.12303
-9.13533
-9.14549
-9.1533
-9.15859
-9.16113
-9.16072
-9.15716
-9.15022
-9.13969
-9.12534
-9.10694
-9.08427
-9.05708
-9.02516
-8.98827
-8.94617
-8.89863
-8.84542
-8.78632
-8.7211
-8.64956
-8.57147
-8.48662
-8.39481
-8.29583
-8.18952
-8.07569
-7.95419
-7.82488
-7.68761
-7.54228
-7.3888
-7.22711
-7.05714
-6.87889
-6.69235
-6.49756
-6.29458
-6.08349
-5.86443
-5.63754
-5.40301
-5.16106
-4.91196
-4.65597
-4.39343
-4.12469
-3.85014
-3.57021
-3.28537
-2.99609
-2.70289
-2.4063
-2.10688
-1.80519
-1.50181
-1.19734
-0.892354
-0.587393
-0.283
0.0203401
0.322159
0.621987
0.919298
1.2136
1.50444
1.79144
2.07421
2.35246
2.62588
2.89427
3.15742
3.41518
3.66744
3.91415
4.15525
4.39077
4.62074
4.84526
5.06443
5.27844
5.48744
5.6917
5.89144
6.08697
6.27859
6.46664
6.65149
6.83354
7.01318
7.19086
7.36704
7.54217
7.71675
7.89125
8.06619
8.24205
8.41932
8.59847
8.77994
8.96412
9.15132
9.34173
9.53538
9.73211
9.93123
10.1327
10.3312
10.5419
10.6846
-8.06655
-8.07091
-8.07832
-8.08568
-8.09185
-8.09706
-8.10162
-8.10573
-8.10956
-8.11327
-8.11697
-8.1208
-8.12484
-8.12916
-8.13383
-8.13892
-8.14445
-8.15048
-8.15703
-8.16413
-8.1718
-8.18007
-8.18895
-8.19845
-8.20859
-8.21938
-8.23083
-8.24294
-8.25571
-8.26915
-8.28327
-8.29806
-8.31352
-8.32965
-8.34644
-8.3639
-8.38201
-8.40077
-8.42018
-8.44023
-8.4609
-8.48218
-8.50404
-8.52648
-8.54946
-8.57296
-8.59693
-8.62136
-8.64619
-8.67139
-8.69691
-8.72271
-8.74871
-8.77487
-8.8011
-8.82733
-8.85348
-8.87945
-8.90514
-8.93046
-8.95529
-8.97951
-9.003
-9.02562
-9.04723
-9.06769
-9.08685
-9.10454
-9.1206
-9.13486
-9.14714
-9.15725
-9.16501
-9.17021
-9.17266
-9.17215
-9.16847
-9.1614
-9.15073
-9.13622
-9.11766
-9.09481
-9.06745
-9.03534
-8.99825
-8.95595
-8.90821
-8.85479
-8.79546
-8.73003
-8.65826
-8.57995
-8.49487
-8.40282
-8.30359
-8.19702
-8.08292
-7.96114
-7.83152
-7.69395
-7.54829
-7.39447
-7.23241
-7.06207
-6.88341
-6.69645
-6.5012
-6.29774
-6.08615
-5.86656
-5.63912
-5.40401
-5.16147
-4.91173
-4.6551
-4.39189
-4.12248
-3.84724
-3.56662
-3.28108
-2.99112
-2.69724
-2.4
-2.09995
-1.79767
-1.49376
-1.18879
-0.883343
-0.578014
-0.273346
0.0301768
0.332105
0.631975
0.929272
1.22346
1.51412
1.80082
2.08322
2.36098
2.63385
2.90158
3.16401
3.42097
3.67238
3.91815
4.15828
4.39275
4.62164
4.845
5.063
5.27576
5.48351
5.68645
5.88487
6.07904
6.26928
6.45593
6.63937
6.81999
6.99821
7.17446
7.34922
7.52294
7.69614
7.86929
8.04292
8.21752
8.3936
8.57163
8.75206
8.93527
9.12156
9.31111
9.50389
9.69974
9.89785
10.0982
10.2952
10.5043
10.6453
-8.07466
-8.07847
-8.08498
-8.09161
-8.09728
-8.10214
-8.10646
-8.11041
-8.11413
-8.11777
-8.12145
-8.12527
-8.12931
-8.13366
-8.13837
-8.14349
-8.14907
-8.15515
-8.16175
-8.1689
-8.17663
-8.18496
-8.1939
-8.20347
-8.21367
-8.22453
-8.23604
-8.24822
-8.26106
-8.27457
-8.28876
-8.30363
-8.31917
-8.33539
-8.35228
-8.36984
-8.38807
-8.40696
-8.4265
-8.4467
-8.46752
-8.48897
-8.51101
-8.53362
-8.55677
-8.58044
-8.60458
-8.62917
-8.65416
-8.67951
-8.70518
-8.73111
-8.75725
-8.78352
-8.80986
-8.83619
-8.86242
-8.88846
-8.9142
-8.93955
-8.96439
-8.9886
-9.01205
-9.03462
-9.05615
-9.07652
-9.09556
-9.11312
-9.12902
-9.14311
-9.1552
-9.16511
-9.17264
-9.17761
-9.17982
-9.17905
-9.17511
-9.16777
-9.15681
-9.14202
-9.12317
-9.10004
-9.07238
-9.03999
-9.00261
-8.96003
-8.91199
-8.85829
-8.79868
-8.73296
-8.66092
-8.58233
-8.49698
-8.40464
-8.30513
-8.19827
-8.08388
-7.9618
-7.83187
-7.69397
-7.54798
-7.39381
-7.23138
-7.06065
-6.88159
-6.6942
-6.49851
-6.29459
-6.08251
-5.8624
-5.63442
-5.39876
-5.15563
-4.9053
-4.64805
-4.38422
-4.11416
-3.83828
-3.55702
-3.27085
-2.98026
-2.68577
-2.38795
-2.08736
-1.7846
-1.48023
-1.17485
-0.869071
-0.563507
-0.258704
0.044854
0.34673
0.646472
0.943567
1.23748
1.52775
1.81397
2.09579
2.37288
2.64497
2.91185
3.17335
3.42932
3.67967
3.92433
4.16328
4.39654
4.62416
4.84622
5.06287
5.27425
5.48059
5.68211
5.87908
6.07178
6.26055
6.44574
6.6277
6.80686
6.98362
7.15843
7.33177
7.5041
7.67594
7.84779
8.02017
8.19359
8.36856
8.54556
8.72504
8.90737
9.09284
9.28163
9.47365
9.6687
9.86591
10.0652
10.261
10.4687
10.6086
-8.08356
-8.0868
-8.09236
-8.09813
-8.10316
-8.10753
-8.11144
-8.11506
-8.11852
-8.12196
-8.12547
-8.12917
-8.13312
-8.13741
-8.14207
-8.14717
-8.15274
-8.15882
-8.16543
-8.1726
-8.18035
-8.18871
-8.19768
-8.20728
-8.21751
-8.22841
-8.23996
-8.25218
-8.26507
-8.27863
-8.29288
-8.30781
-8.32343
-8.33972
-8.3567
-8.37436
-8.39269
-8.4117
-8.43136
-8.45167
-8.47262
-8.49418
-8.51633
-8.53905
-8.5623
-8.58605
-8.61027
-8.63492
-8.65995
-8.68533
-8.71102
-8.73695
-8.76307
-8.78932
-8.81561
-8.84186
-8.868
-8.89392
-8.91952
-8.94471
-8.96936
-8.99336
-9.01658
-9.0389
-9.06016
-9.08024
-9.09897
-9.11621
-9.13178
-9.14551
-9.15724
-9.16678
-9.17394
-9.17853
-9.18035
-9.17919
-9.17486
-9.16712
-9.15578
-9.14061
-9.12138
-9.09787
-9.06985
-9.03709
-8.99936
-8.95643
-8.90807
-8.85403
-8.79412
-8.7281
-8.65577
-8.57689
-8.49125
-8.39863
-8.29885
-8.19171
-8.07704
-7.95468
-7.82446
-7.68626
-7.53997
-7.38548
-7.22274
-7.05167
-6.87225
-6.68449
-6.48841
-6.28407
-6.07157
-5.85101
-5.62257
-5.38642
-5.1428
-4.89195
-4.63418
-4.36981
-4.09922
-3.82281
-3.54102
-3.25433
-2.96323
-2.66828
-2.37002
-2.06904
-1.76591
-1.46123
-1.1556
-0.849665
-0.54404
-0.239282
0.0641303
0.365754
0.665162
0.961839
1.25526
1.54493
1.83047
2.11148
2.38768
2.65878
2.92461
3.18496
3.43974
3.68883
3.9322
4.1698
4.40168
4.62787
4.84848
5.06363
5.27352
5.47833
5.67832
5.87375
6.06493
6.25217
6.43584
6.6163
6.79398
6.96929
7.14268
7.31463
7.48563
7.65619
7.82681
7.99803
8.17037
8.34434
8.52042
8.69907
8.88063
9.06541
9.25352
9.4449
9.63924
9.83567
10.034
10.2288
10.4351
10.5747
-8.09322
-8.09589
-8.10049
-8.10534
-8.10958
-8.11327
-8.11659
-8.11969
-8.12272
-8.12578
-8.12899
-8.13243
-8.13618
-8.14031
-8.14484
-8.14985
-8.15534
-8.16136
-8.16793
-8.17507
-8.18279
-8.19113
-8.20008
-8.20966
-8.21988
-8.23076
-8.2423
-8.25451
-8.2674
-8.28097
-8.29522
-8.31016
-8.32578
-8.34209
-8.35909
-8.37677
-8.39512
-8.41415
-8.43382
-8.45413
-8.47506
-8.49659
-8.51869
-8.54134
-8.5645
-8.58815
-8.61225
-8.63676
-8.66163
-8.68684
-8.71231
-8.73802
-8.7639
-8.78988
-8.81588
-8.84182
-8.86761
-8.89317
-8.91838
-8.94315
-8.96737
-8.99092
-9.01368
-9.03551
-9.05628
-9.07585
-9.09407
-9.11079
-9.12583
-9.13904
-9.15024
-9.15926
-9.1659
-9.16997
-9.17128
-9.16962
-9.1648
-9.15659
-9.14478
-9.12915
-9.10949
-9.08556
-9.05714
-9.02398
-8.98589
-8.9426
-8.89391
-8.83958
-8.77938
-8.71309
-8.64049
-8.56135
-8.47546
-8.38261
-8.2826
-8.17524
-8.06035
-7.93777
-7.80734
-7.66893
-7.52241
-7.3677
-7.20472
-7.03341