/*--------------------------------*- C++ -*----------------------------------*\
| =========                 |                                                 |
| \\      /  F ield         | OpenFOAM: The Open Source CFD Toolbox           |
|  \\    /   O peration     | Version:  2406                                  |
|   \\  /    A nd           | Website:  www.openfoam.com                      |
|    \\/     M anipulation  |                                                 |
\*---------------------------------------------------------------------------*/
FoamFile
{
    version     2.0;
    format      ascii;
    arch        "LSB;label=32;scalar=64";
    class       surfaceScalarField;
    location    "200";
    object      phi;
}
// * * * * * * * * * * * * * * * * * * * * * * * * * * * * * * * * * * * * * //

dimensions      [0 3 -1 0 0 0 0];

oriented        oriented;

internalField   nonuniform List<scalar> 
24170
(
3.11512e-06
7.32892e-08
3.01296e-06
1.0215e-07
2.91749e-06
9.54691e-08
2.82631e-06
9.11764e-08
2.7403e-06
8.60049e-08
2.66278e-06
7.75192e-08
2.59489e-06
6.78914e-08
2.53597e-06
5.89111e-08
2.48493e-06
5.10463e-08
2.44066e-06
4.42658e-08
2.40221e-06
3.84441e-08
2.36877e-06
3.34384e-08
2.33967e-06
2.91006e-08
2.31436e-06
2.53078e-08
2.29254e-06
2.1819e-08
2.27373e-06
1.88087e-08
2.25774e-06
1.59844e-08
1.26338e-08
2.24511e-06
3.46865e-06
2.18853e-08
3.48677e-06
8.40233e-08
3.49345e-06
8.87917e-08
3.49231e-06
9.2304e-08
3.48432e-06
9.39962e-08
3.47071e-06
9.11232e-08
3.45277e-06
8.58298e-08
3.43173e-06
7.99522e-08
3.40869e-06
7.40807e-08
3.38456e-06
6.83935e-08
3.36004e-06
6.29575e-08
3.33565e-06
5.78301e-08
3.31175e-06
5.29947e-08
3.28862e-06
4.84387e-08
3.26645e-06
4.39914e-08
3.24545e-06
3.98041e-08
3.22639e-06
3.50381e-08
2.87952e-08
3.21023e-06
3.66801e-06
1.63916e-08
3.68031e-06
7.17237e-08
3.69e-06
7.90965e-08
3.70002e-06
8.22838e-08
3.70913e-06
8.48859e-08
3.71622e-06
8.40332e-08
3.72118e-06
8.0864e-08
3.72423e-06
7.69068e-08
3.72558e-06
7.27224e-08
3.72551e-06
6.84642e-08
3.72426e-06
6.42082e-08
3.72206e-06
6.0028e-08
3.71911e-06
5.59374e-08
3.71563e-06
5.19249e-08
3.71173e-06
4.7884e-08
3.70779e-06
4.37503e-08
3.7038e-06
3.90262e-08
3.31641e-08
3.69943e-06
3.92495e-06
1.68266e-08
3.93556e-06
6.11124e-08
3.94312e-06
7.15371e-08
3.95014e-06
7.5259e-08
3.95682e-06
7.82021e-08
3.96261e-06
7.82409e-08
3.96757e-06
7.59001e-08
3.9719e-06
7.25777e-08
3.97568e-06
6.89347e-08
3.97899e-06
6.51582e-08
3.98187e-06
6.13292e-08
3.98437e-06
5.75165e-08
3.98657e-06
5.37375e-08
3.98852e-06
4.99728e-08
3.99027e-06
4.61322e-08
3.99192e-06
4.21068e-08
3.99329e-06
3.76462e-08
3.24572e-08
3.994e-06
4.20772e-06
1.62301e-08
4.21609e-06
5.27477e-08
4.22226e-06
6.5367e-08
4.22774e-06
6.97748e-08
4.23318e-06
7.27589e-08
4.23821e-06
7.32137e-08
4.24273e-06
7.13726e-08
4.24686e-06
6.84541e-08
4.25065e-06
6.51446e-08
4.25415e-06
6.16543e-08
4.25741e-06
5.80702e-08
4.26046e-06
5.44597e-08
4.26335e-06
5.08452e-08
4.26612e-06
4.72086e-08
4.26877e-06
4.34783e-08
4.27131e-06
3.95647e-08
4.27363e-06
3.53298e-08
3.06451e-08
4.27544e-06
4.51042e-06
1.48943e-08
4.51713e-06
4.60431e-08
4.52283e-06
5.96591e-08
4.52796e-06
6.46416e-08
4.5331e-06
6.76212e-08
4.53795e-06
6.83554e-08
4.54238e-06
6.69434e-08
4.54643e-06
6.44013e-08
4.55018e-06
6.13927e-08
4.55369e-06
5.81486e-08
4.55699e-06
5.47679e-08
4.56013e-06
5.1321e-08
4.56313e-06
4.78385e-08
4.56603e-06
4.43094e-08
4.56882e-06
4.06853e-08
4.57148e-06
3.6904e-08
4.57391e-06
3.28962e-08
2.86325e-08
4.57593e-06
4.83415e-06
1.34664e-08
4.83991e-06
4.02833e-08
4.84554e-06
5.40236e-08
4.85066e-06
5.95242e-08
4.85572e-06
6.25611e-08
4.86055e-06
6.35272e-08
4.86499e-06
6.2498e-08
4.86908e-06
6.03093e-08
4.87289e-06
5.75855e-08
4.87646e-06
5.45745e-08
4.87984e-06
5.13884e-08
4.88306e-06
4.81019e-08
4.88614e-06
4.47542e-08
4.8891e-06
4.13451e-08
4.89194e-06
3.78488e-08
4.89461e-06
3.42304e-08
4.89704e-06
3.0469e-08
2.6591e-08
4.89908e-06
5.18096e-06
1.20908e-08
5.18605e-06
3.51841e-08
5.19158e-06
4.84955e-08
5.19671e-06
5.43911e-08
5.20177e-06
5.75029e-08
5.20665e-06
5.86492e-08
5.21119e-06
5.79533e-08
5.2154e-06
5.60945e-08
5.21934e-06
5.36467e-08
5.22304e-06
5.08684e-08
5.22655e-06
4.78819e-08
5.22988e-06
4.47668e-08
5.23307e-06
4.15706e-08
5.2361e-06
3.83053e-08
5.23899e-06
3.49654e-08
5.24168e-06
3.15404e-08
5.24411e-06
2.80394e-08
2.45114e-08
5.24618e-06
5.55268e-06
1.07522e-08
5.55721e-06
3.06543e-08
5.56252e-06
4.31806e-08
5.56764e-06
4.92722e-08
5.57271e-06
5.24286e-08
5.57766e-06
5.36964e-08
5.58234e-06
5.328e-08
5.5867e-06
5.17249e-08
5.59081e-06
4.9544e-08
5.59467e-06
4.69993e-08
5.59833e-06
4.42206e-08
5.60181e-06
4.12916e-08
5.60511e-06
3.82672e-08
5.60824e-06
3.51718e-08
5.61119e-06
3.20162e-08
5.61392e-06
2.88095e-08
5.61638e-06
2.55768e-08
2.23767e-08
5.61852e-06
5.95107e-06
9.45672e-09
5.95511e-06
2.66129e-08
5.96016e-06
3.81265e-08
5.96524e-06
4.41979e-08
5.97031e-06
4.73492e-08
5.97533e-06
4.86838e-08
5.98012e-06
4.84889e-08
5.98464e-06
4.72036e-08
5.9889e-06
4.52744e-08
5.99294e-06
4.29598e-08
5.99677e-06
4.03945e-08
6.00039e-06
3.76651e-08
6.00383e-06
3.4832e-08
6.00707e-06
3.19302e-08
6.0101e-06
2.89832e-08
6.01289e-06
2.60135e-08
6.01542e-06
2.3054e-08
2.01645e-08
6.01763e-06
6.37804e-06
8.22487e-09
6.38168e-06
2.29796e-08
6.38646e-06
3.3345e-08
6.39146e-06
3.91973e-08
6.39652e-06
4.22848e-08
6.40156e-06
4.3638e-08
6.40645e-06
4.36055e-08
6.4111e-06
4.25506e-08
6.41552e-06
4.08537e-08
6.41971e-06
3.87617e-08
6.4237e-06
3.64116e-08
6.42747e-06
3.38916e-08
6.43103e-06
3.12655e-08
6.43439e-06
2.85765e-08
6.43751e-06
2.58566e-08
6.44039e-06
2.31365e-08
6.44299e-06
2.04513e-08
1.78585e-08
6.4453e-06
5.74182e-06
7.2354e-09
5.74462e-06
2.01779e-08
5.74846e-06
2.95128e-08
5.75261e-06
3.50417e-08
5.75687e-06
3.80255e-08
5.76114e-06
3.93629e-08
5.76532e-06
3.94244e-08
5.76934e-06
3.85318e-08
5.77318e-06
3.70151e-08
5.77683e-06
3.51048e-08
5.78031e-06
3.29362e-08
5.7836e-06
3.05984e-08
5.78671e-06
2.8157e-08
5.78962e-06
2.56587e-08
5.79234e-06
2.31409e-08
5.79484e-06
2.06374e-08
5.7971e-06
1.8183e-08
1.58319e-08
5.79913e-06
6.99922e-06
6.17389e-09
7.00219e-06
1.72019e-08
7.00635e-06
2.53527e-08
7.01099e-06
3.03979e-08
7.01583e-06
3.3188e-08
7.02073e-06
3.44618e-08
7.02556e-06
3.45878e-08
7.03025e-06
3.38467e-08
7.03475e-06
3.25164e-08
7.03904e-06
3.08047e-08
7.04314e-06
2.8843e-08
7.04702e-06
2.67185e-08
7.05067e-06
2.44966e-08
7.05411e-06
2.22267e-08
7.0573e-06
1.99481e-08
7.06024e-06
1.76967e-08
7.06292e-06
1.55034e-08
1.342e-08
7.06533e-06
8.53197e-06
5.0497e-09
8.53509e-06
1.40788e-08
8.53955e-06
2.08948e-08
8.54467e-06
2.52766e-08
8.5501e-06
2.77563e-08
8.55566e-06
2.89001e-08
8.5612e-06
2.90452e-08
8.56661e-06
2.84327e-08
8.57184e-06
2.72872e-08
8.57686e-06
2.57889e-08
8.58164e-06
2.40584e-08
8.58618e-06
2.21799e-08
8.59046e-06
2.02149e-08
8.59447e-06
1.8213e-08
8.59821e-06
1.62129e-08
8.60165e-06
1.42489e-08
8.60481e-06
1.23486e-08
1.05569e-08
8.60767e-06
1.04004e-05
3.87388e-09
1.04036e-05
1.08307e-08
1.04084e-05
1.61641e-08
1.0414e-05
1.96919e-08
1.042e-05
2.17204e-08
1.04262e-05
2.26465e-08
1.04325e-05
2.275e-08
1.04387e-05
2.22285e-08
1.04448e-05
2.12571e-08
1.04506e-05
1.99804e-08
1.04561e-05
1.85046e-08
1.04614e-05
1.69033e-08
1.04664e-05
1.52337e-08
1.04711e-05
1.35395e-08
1.04754e-05
1.18573e-08
1.04794e-05
1.02165e-08
1.04832e-05
8.64026e-09
7.16603e-09
1.04865e-05
1.2678e-05
2.65434e-09
1.26814e-05
7.45509e-09
1.26864e-05
1.1163e-08
1.26924e-05
1.36444e-08
1.26991e-05
1.50605e-08
1.27061e-05
1.56601e-08
1.27132e-05
1.56455e-08
1.27202e-05
1.51655e-08
1.27271e-05
1.43456e-08
1.27338e-05
1.3293e-08
1.27403e-05
1.20894e-08
1.27464e-05
1.07954e-08
1.27521e-05
9.45644e-09
1.27576e-05
8.10943e-09
1.27626e-05
6.78271e-09
1.27674e-05
5.50098e-09
1.27717e-05
4.27959e-09
3.15072e-09
1.27757e-05
1.54545e-05
1.38247e-09
1.5458e-05
3.90936e-09
1.54633e-05
5.83628e-09
1.54699e-05
7.07831e-09
1.54772e-05
7.70812e-09
1.5485e-05
7.85462e-09
1.54931e-05
7.63424e-09
1.55011e-05
7.13714e-09
1.5509e-05
6.43924e-09
1.55167e-05
5.60599e-09
1.55241e-05
4.68937e-09
1.55311e-05
3.72898e-09
1.55378e-05
2.75513e-09
1.55441e-05
1.7921e-09
1.55501e-05
8.58986e-10
1.55556e-05
-2.85319e-11
1.55607e-05
-8.61225e-10
-1.61548e-09
1.55655e-05
1.8839e-05
1.93287e-11
1.88428e-05
6.88941e-11
1.88487e-05
7.33213e-12
1.88559e-05
-2.02649e-10
1.88642e-05
-5.42113e-10
1.8873e-05
-9.8219e-10
1.88822e-05
-1.49857e-09
1.88914e-05
-2.06918e-09
1.89005e-05
-2.67169e-09
1.89094e-05
-3.28656e-09
1.8918e-05
-3.89827e-09
1.89262e-05
-4.49462e-09
1.8934e-05
-5.06556e-09
1.89414e-05
-5.60281e-09
1.89483e-05
-6.09982e-09
1.89549e-05
-6.55103e-09
1.8961e-05
-6.95467e-09
-7.29545e-09
1.89666e-05
2.29649e-05
-1.53625e-09
2.29693e-05
-4.36036e-09
2.29761e-05
-6.75921e-09
2.29846e-05
-8.70221e-09
2.29942e-05
-1.02062e-08
2.30046e-05
-1.13568e-08
2.30154e-05
-1.22443e-08
2.30262e-05
-1.29221e-08
2.3037e-05
-1.34281e-08
2.30475e-05
-1.37964e-08
2.30576e-05
-1.40588e-08
2.30674e-05
-1.42363e-08
2.30766e-05
-1.43449e-08
2.30854e-05
-1.43951e-08
2.30937e-05
-1.43961e-08
2.31015e-05
-1.43532e-08
2.31089e-05
-1.42734e-08
-1.41494e-08
2.31157e-05
1.68119e-05
-2.73941e-09
1.68153e-05
-7.76653e-09
1.68205e-05
-1.1978e-08
1.6827e-05
-1.52199e-08
1.68344e-05
-1.75346e-08
1.68422e-05
-1.91567e-08
1.68502e-05
-2.02784e-08
1.68583e-05
-2.10015e-08
1.68662e-05
-2.14017e-08
1.6874e-05
-2.15609e-08
1.68815e-05
-2.15429e-08
1.68887e-05
-2.1396e-08
1.68955e-05
-2.11516e-08
1.69019e-05
-2.08369e-08
1.6908e-05
-2.04692e-08
1.69137e-05
-2.00639e-08
1.6919e-05
-1.96299e-08
-1.91681e-08
1.69241e-05
1.46357e-05
-3.87323e-09
1.4639e-05
-1.10308e-08
1.4644e-05
-1.7022e-08
1.46502e-05
-2.14219e-08
1.4657e-05
-2.43749e-08
1.46642e-05
-2.63535e-08
1.46716e-05
-2.7634e-08
1.46789e-05
-2.83344e-08
1.46861e-05
-2.8583e-08
1.46931e-05
-2.85099e-08
1.46997e-05
-2.82114e-08
1.47061e-05
-2.77506e-08
1.47121e-05
-2.71757e-08
1.47178e-05
-2.65239e-08
1.47231e-05
-2.58233e-08
1.47282e-05
-2.50927e-08
1.47329e-05
-2.43476e-08
-2.35897e-08
1.47373e-05
1.27412e-05
-4.89809e-09
1.27444e-05
-1.4276e-08
1.27495e-05
-2.21426e-08
1.27556e-05
-2.74739e-08
1.2762e-05
-3.08432e-08
1.27688e-05
-3.30968e-08
1.27756e-05
-3.44794e-08
1.27824e-05
-3.50916e-08
1.27889e-05
-3.51344e-08
1.27952e-05
-3.47992e-08
1.28012e-05
-3.42053e-08
1.28069e-05
-3.34291e-08
1.28122e-05
-3.2532e-08
1.28173e-05
-3.15607e-08
1.2822e-05
-3.05502e-08
1.28264e-05
-2.95214e-08
1.28306e-05
-2.84911e-08
-2.74614e-08
1.28344e-05
1.10917e-05
-5.68029e-09
1.1095e-05
-1.75452e-08
1.11004e-05
-2.75479e-08
1.11064e-05
-3.34642e-08
1.11125e-05
-3.6998e-08
1.11189e-05
-3.94398e-08
1.11252e-05
-4.08486e-08
1.11315e-05
-4.13094e-08
1.11374e-05
-4.11185e-08
1.11431e-05
-4.05126e-08
1.11486e-05
-3.96204e-08
1.11537e-05
-3.85319e-08
1.11584e-05
-3.73209e-08
1.11629e-05
-3.60463e-08
1.11671e-05
-3.47451e-08
1.1171e-05
-3.34448e-08
1.11747e-05
-3.21622e-08
-3.09065e-08
1.11782e-05
9.65564e-06
-6.1062e-09
9.65904e-06
-2.09511e-08
9.66464e-06
-3.31485e-08
9.67044e-06
-3.92628e-08
9.67636e-06
-4.29185e-08
9.68242e-06
-4.55012e-08
9.68837e-06
-4.67995e-08
9.69407e-06
-4.70136e-08
9.69951e-06
-4.65575e-08
9.70468e-06
-4.56786e-08
9.70955e-06
-4.44973e-08
9.71413e-06
-4.31117e-08
9.71842e-06
-4.16085e-08
9.72242e-06
-4.00531e-08
9.72616e-06
-3.84878e-08
9.72966e-06
-3.69388e-08
9.73291e-06
-3.54191e-08
-3.39231e-08
9.73593e-06
8.40494e-06
-5.69809e-09
8.40932e-06
-2.53316e-08
8.41475e-06
-3.8573e-08
8.41986e-06
-4.43788e-08
8.42544e-06
-4.84964e-08
8.43131e-06
-5.13711e-08
8.43703e-06
-5.25253e-08
8.44247e-06
-5.24488e-08
8.4476e-06
-5.16965e-08
8.45244e-06
-5.05174e-08
8.45697e-06
-4.9028e-08
8.46119e-06
-4.73376e-08
8.46513e-06
-4.55424e-08
8.46879e-06
-4.37135e-08
8.47219e-06
-4.18952e-08
8.47537e-06
-4.01165e-08
8.47835e-06
-3.8402e-08
-3.67608e-08
8.48119e-06
7.31365e-06
-2.06069e-09
7.32071e-06
-3.23952e-08
7.32651e-06
-4.43799e-08
7.33133e-06
-4.91924e-08
7.33671e-06
-5.3882e-08
7.34238e-06
-5.70389e-08
7.34792e-06
-5.80658e-08
7.35323e-06
-5.77652e-08
7.3583e-06
-5.67636e-08
7.36307e-06
-5.52933e-08
7.36753e-06
-5.34881e-08
7.37167e-06
-5.1479e-08
7.37551e-06
-4.93779e-08
7.37905e-06
-4.72606e-08
7.38233e-06
-4.51773e-08
7.38537e-06
-4.31576e-08
7.38818e-06
-4.12122e-08
-3.929e-08
7.39071e-06
6.36047e-06
7.53634e-09
6.3703e-06
-4.22263e-08
6.37819e-06
-5.22686e-08
6.38525e-06
-5.62612e-08
6.39238e-06
-6.10085e-08
6.399e-06
-6.36582e-08
6.40499e-06
-6.40601e-08
6.41054e-06
-6.33187e-08
6.41575e-06
-6.19692e-08
6.4206e-06
-6.01461e-08
6.42509e-06
-5.79763e-08
6.42921e-06
-5.56002e-08
6.43297e-06
-5.31468e-08
6.4364e-06
-5.06925e-08
6.43952e-06
-4.82953e-08
6.44236e-06
-4.59966e-08
6.44497e-06
-4.38274e-08
-4.18158e-08
6.4475e-06
5.53917e-06
1.38303e-08
5.54752e-06
-5.05794e-08
5.55587e-06
-6.06156e-08
5.56612e-06
-6.65191e-08
5.57733e-06
-7.22132e-08
5.58782e-06
-7.41584e-08
5.59704e-06
-7.32817e-08
5.60501e-06
-7.12815e-08
5.61178e-06
-6.8743e-08
5.61744e-06
-6.58069e-08
5.62206e-06
-6.25965e-08
5.62572e-06
-5.92668e-08
5.62853e-06
-5.59532e-08
5.63056e-06
-5.27301e-08
5.63192e-06
-4.96491e-08
5.6327e-06
-4.67794e-08
5.633e-06
-4.41314e-08
-4.17971e-08
5.63298e-06
4.87157e-06
-3.01349e-08
4.88648e-06
-6.54862e-08
4.89722e-06
-7.13597e-08
4.90599e-06
-7.52984e-08
4.91304e-06
-7.9262e-08
4.91732e-06
-7.84417e-08
4.91816e-06
-7.41178e-08
4.91543e-06
-6.85519e-08
4.90944e-06
-6.27607e-08
4.90072e-06
-5.70861e-08
4.88982e-06
-5.1698e-08
4.87725e-06
-4.66956e-08
4.86346e-06
-4.21611e-08
4.84881e-06
-3.80865e-08
4.83362e-06
-3.44578e-08
4.81814e-06
-3.12986e-08
4.80263e-06
-2.86242e-08
-2.69299e-08
4.78776e-06
4.17254e-06
4.10705e-06
4.03569e-06
3.9604e-06
3.88113e-06
3.80269e-06
3.72857e-06
3.66002e-06
3.59726e-06
3.54017e-06
3.48848e-06
3.44178e-06
3.39962e-06
3.36153e-06
3.32708e-06
3.29578e-06
3.26715e-06
3.24022e-06
1.22131e-08
-1.22452e-08
2.94916e-08
-1.7337e-08
4.54454e-08
-1.59896e-08
5.76861e-08
-1.22907e-08
6.53251e-08
-7.66724e-09
6.8183e-08
-2.90826e-09
6.66607e-08
1.49851e-09
6.13983e-08
5.20866e-09
5.32959e-08
8.07912e-09
4.30459e-08
1.01902e-08
3.12973e-08
1.17248e-08
1.83609e-08
1.28687e-08
4.57824e-09
1.37591e-08
-1.00937e-08
1.46008e-08
-2.56634e-08
1.55528e-08
-4.23064e-08
1.65758e-08
-6.00095e-08
1.76953e-08
-7.90033e-08
1.89299e-08
-9.92905e-08
2.0281e-08
-1.21083e-07
2.17294e-08
-1.44345e-07
2.32571e-08
-1.69243e-07
2.48343e-08
-1.95691e-07
2.6438e-08
-2.23792e-07
2.80353e-08
-2.5341e-07
2.96037e-08
-2.84589e-07
3.1115e-08
-3.17156e-07
3.25538e-08
-3.51118e-07
3.38997e-08
-3.86274e-07
3.51435e-08
-4.22601e-07
3.62692e-08
-4.59881e-07
3.72737e-08
-4.98083e-07
3.81498e-08
-5.36991e-07
3.89054e-08
-5.76577e-07
3.95395e-08
-6.16634e-07
4.00626e-08
-6.5715e-07
4.04753e-08
-6.97932e-07
4.07914e-08
-7.38986e-07
4.10146e-08
-7.80141e-07
4.11639e-08
-8.21428e-07
4.12479e-08
-8.62712e-07
4.12927e-08
-9.04066e-07
4.13157e-08
-9.45402e-07
4.13446e-08
-9.86811e-07
4.13738e-08
-1.0282e-06
4.14036e-08
-1.06966e-06
4.14257e-08
-1.11109e-06
4.14465e-08
-1.15259e-06
4.14574e-08
-1.19404e-06
4.14653e-08
-1.23554e-06
4.14613e-08
-1.27698e-06
4.14529e-08
-1.31845e-06
4.14305e-08
-1.35986e-06
4.14011e-08
-1.40126e-06
4.13557e-08
-1.44256e-06
4.13008e-08
-1.48382e-06
4.12256e-08
-1.52496e-06
4.11367e-08
-1.56603e-06
4.10242e-08
-1.60692e-06
4.08944e-08
-1.6477e-06
4.0736e-08
-1.68825e-06
4.05558e-08
-1.72863e-06
4.03437e-08
-1.76873e-06
4.01061e-08
-1.80859e-06
3.98316e-08
-1.84811e-06
3.95275e-08
-1.88732e-06
3.91825e-08
-1.92611e-06
3.88044e-08
-1.96452e-06
3.83821e-08
-2.00243e-06
3.79238e-08
-2.03988e-06
3.74184e-08
-2.07674e-06
3.68743e-08
-2.11304e-06
3.62804e-08
-2.14867e-06
3.56452e-08
-2.18365e-06
3.49574e-08
-2.21787e-06
3.42265e-08
-2.25134e-06
3.34411e-08
-2.28395e-06
3.26109e-08
-2.3157e-06
3.17264e-08
-2.34649e-06
3.07968e-08
-2.37633e-06
2.98107e-08
-2.40509e-06
2.87777e-08
-2.4328e-06
2.76878e-08
-2.45933e-06
2.65504e-08
-2.4847e-06
2.53537e-08
-2.50879e-06
2.41079e-08
-2.5316e-06
2.28031e-08
-2.55303e-06
2.14487e-08
-2.57304e-06
2.00339e-08
-2.59156e-06
1.85623e-08
-2.60852e-06
1.70298e-08
-2.6239e-06
1.54279e-08
-2.63762e-06
1.37521e-08
-2.64959e-06
1.19966e-08
-2.65972e-06
1.01529e-08
-2.66792e-06
8.20611e-09
-2.67404e-06
6.13718e-09
-2.67797e-06
3.94091e-09
-2.67962e-06
1.66229e-09
-2.67906e-06
-5.54448e-10
-2.67647e-06
-2.58913e-09
-2.67196e-06
-4.50286e-09
-2.66557e-06
-6.39919e-09
-2.65728e-06
-8.3038e-09
-2.64707e-06
-1.0227e-08
-2.63491e-06
-1.21653e-08
-2.62081e-06
-1.41197e-08
-2.60472e-06
-1.60831e-08
-2.58666e-06
-1.80556e-08
-2.56662e-06
-2.003e-08
-2.5446e-06
-2.20054e-08
-2.5206e-06
-2.39748e-08
-2.49463e-06
-2.59355e-08
-2.46671e-06
-2.78813e-08
-2.43686e-06
-2.98076e-08
-2.40511e-06
-3.17089e-08
-2.37148e-06
-3.35789e-08
-2.33601e-06
-3.54137e-08
-2.29875e-06
-3.72052e-08
-2.25975e-06
-3.89502e-08
-2.21905e-06
-4.06386e-08
-2.17672e-06
-4.22668e-08
-2.13282e-06
-4.38236e-08
-2.08742e-06
-4.53117e-08
-2.04061e-06
-4.67185e-08
-1.99248e-06
-4.8053e-08
-1.9431e-06
-4.93032e-08
-1.89256e-06
-5.04848e-08
-1.84094e-06
-5.15682e-08
-1.78837e-06
-5.25549e-08
-1.73492e-06
-5.34364e-08
-1.68071e-06
-5.42324e-08
-1.62581e-06
-5.49208e-08
-1.57037e-06
-5.55104e-08
-1.51446e-06
-5.59853e-08
-1.45822e-06
-5.63562e-08
-1.40173e-06
-5.66111e-08
-1.34511e-06
-5.67579e-08
-1.28847e-06
-5.67903e-08
-1.23191e-06
-5.67131e-08
-1.17552e-06
-5.65298e-08
-1.11941e-06
-5.6244e-08
-1.06366e-06
-5.58657e-08
-1.00836e-06
-5.53941e-08
-9.53602e-07
-5.48408e-08
-8.99463e-07
-5.42025e-08
-8.46019e-07
-5.34947e-08
-7.93332e-07
-5.27138e-08
-7.41465e-07
-5.18786e-08
-6.90461e-07
-5.09849e-08
-6.4037e-07
-5.00536e-08
-5.91218e-07
-4.90796e-08
-5.43036e-07
-4.8087e-08
-4.95834e-07
-4.70717e-08
-4.4962e-07
-4.6058e-08
-4.04388e-07
-4.50411e-08
-3.60121e-07
-4.40501e-08
-3.16793e-07
-4.30784e-08
-2.74365e-07
-4.21538e-08
-2.32785e-07
-4.12753e-08
-1.9199e-07
-4.04667e-08
-1.51918e-07
-3.97165e-08
-1.12449e-07
-3.90905e-08
-7.34921e-08
-3.85553e-08
-3.50078e-08
-3.80635e-08
2.97921e-09
-3.75498e-08
4.03337e-08
-3.69012e-08
7.70028e-08
-3.62142e-08
1.13227e-07
-3.5763e-08
1.49326e-07
-3.56459e-08
1.85696e-07
-3.5908e-08
2.22686e-07
-3.65435e-08
2.6064e-07
-3.74976e-08
2.99754e-07
-3.86804e-08
3.40202e-07
-4.00084e-08
3.81965e-07
-4.13542e-08
4.24813e-07
-4.24405e-08
4.67938e-07
-4.27593e-08
5.08989e-07
-4.07056e-08
5.43341e-07
-3.40669e-08
5.57471e-09
5.38012e-07
1.39927e-08
-2.62692e-08
2.30488e-08
-2.64352e-08
2.66019e-08
-1.95661e-08
2.60947e-08
-1.18076e-08
2.25246e-08
-4.11316e-09
1.64101e-08
3.18488e-09
8.03888e-09
9.85547e-09
-2.51533e-09
1.57416e-08
-1.52262e-08
2.0776e-08
-3.00562e-08
2.4999e-08
-4.68855e-08
2.85404e-08
-6.56119e-08
3.15743e-08
-8.61434e-08
3.42777e-08
-1.08373e-07
3.681e-08
-1.32129e-07
3.92977e-08
-1.57394e-07
4.18201e-08
-1.8413e-07
4.44224e-08
-2.12336e-07
4.71175e-08
-2.41957e-07
4.98934e-08
-2.72968e-07
5.27203e-08
-3.0528e-07
5.55601e-08
-3.38835e-07
5.837e-08
-3.73516e-07
6.11079e-08
-4.09237e-07
6.37338e-08
-4.45859e-07
6.62133e-08
-4.83283e-07
6.85169e-08
-5.21365e-07
7.06236e-08
-5.60008e-07
7.25195e-08
-5.99076e-07
7.41987e-08
-6.38486e-07
7.56579e-08
-6.78122e-07
7.68986e-08
-7.1792e-07
7.79271e-08
-7.57782e-07
7.87583e-08
-7.97669e-07
7.94087e-08
-8.3751e-07
7.98979e-08
-8.77295e-07
8.02445e-08
-9.16978e-07
8.04695e-08
-9.5657e-07
8.05914e-08
-9.96043e-07
8.06318e-08
-1.03542e-06
8.06103e-08
-1.07468e-06
8.05488e-08
-1.11384e-06
8.0464e-08
-1.15287e-06
8.03685e-08
-1.19178e-06
8.02645e-08
-1.23053e-06
8.01529e-08
-1.26914e-06
8.00326e-08
-1.3076e-06
7.99043e-08
-1.34592e-06
7.97652e-08
-1.38407e-06
7.96153e-08
-1.42207e-06
7.94506e-08
-1.4599e-06
7.92702e-08
-1.49755e-06
7.907e-08
-1.53501e-06
7.88489e-08
-1.57227e-06
7.8602e-08
-1.6093e-06
7.83275e-08
-1.64611e-06
7.80199e-08
-1.68266e-06
7.76776e-08
-1.71895e-06
7.72949e-08
-1.75494e-06
7.68697e-08
-1.79061e-06
7.63963e-08
-1.82594e-06
7.58732e-08
-1.8609e-06
7.52948e-08
-1.89546e-06
7.46596e-08
-1.9296e-06
7.39616e-08
-1.96328e-06
7.31998e-08
-1.99648e-06
7.23687e-08
-2.02914e-06
7.1468e-08
-2.06126e-06
7.04924e-08
-2.09278e-06
6.9442e-08
-2.12368e-06
6.83119e-08
-2.15391e-06
6.71024e-08
-2.18345e-06
6.58087e-08
-2.21223e-06
6.44317e-08
-2.24025e-06
6.29663e-08
-2.26744e-06
6.14142e-08
-2.29378e-06
5.9771e-08
-2.31921e-06
5.80393e-08
-2.34371e-06
5.62152e-08
-2.36721e-06
5.43005e-08
-2.3897e-06
5.2291e-08
-2.41111e-06
5.01893e-08
-2.43142e-06
4.79914e-08
-2.45056e-06
4.56996e-08
-2.46852e-06
4.33096e-08
-2.48523e-06
4.08248e-08
-2.50067e-06
3.82418e-08
-2.51478e-06
3.55634e-08
-2.52752e-06
3.27857e-08
-2.53883e-06
2.991e-08
-2.54869e-06
2.6932e-08
-2.55708e-06
2.38492e-08
-2.56397e-06
2.06599e-08
-2.56933e-06
1.73633e-08
-2.57313e-06
1.39622e-08
-2.57538e-06
1.04618e-08
-2.57612e-06
6.88302e-09
-2.57543e-06
3.26269e-09
-2.57341e-06
-3.54986e-10
-2.57e-06
-3.966e-09
-2.56499e-06
-7.60156e-09
-2.55821e-06
-1.12799e-08
-2.54962e-06
-1.49996e-08
-2.53917e-06
-1.87614e-08
-2.52685e-06
-2.25631e-08
-2.51263e-06
-2.6399e-08
-2.49649e-06
-3.02637e-08
-2.47843e-06
-3.41491e-08
-2.45843e-06
-3.80487e-08
-2.4365e-06
-4.19536e-08
-2.41264e-06
-4.58567e-08
-2.38685e-06
-4.97479e-08
-2.35914e-06
-5.3619e-08
-2.32954e-06
-5.74589e-08
-2.29806e-06
-6.12581e-08
-2.26474e-06
-6.50047e-08
-2.2296e-06
-6.86884e-08
-2.19268e-06
-7.22972e-08
-2.15403e-06
-7.58205e-08
-2.1137e-06
-7.92453e-08
-2.07175e-06
-8.25583e-08
-2.02823e-06
-8.57463e-08
-1.98321e-06
-8.87963e-08
-1.93676e-06
-9.17001e-08
-1.88898e-06
-9.44475e-08
-1.83994e-06
-9.70353e-08
-1.78975e-06
-9.94568e-08
-1.73847e-06
-1.0172e-07
-1.68622e-06
-1.03801e-07
-1.63307e-06
-1.05681e-07
-1.57914e-06
-1.0736e-07
-1.52453e-06
-1.08852e-07
-1.46933e-06
-1.1014e-07
-1.41365e-06
-1.1122e-07
-1.3576e-06
-1.12083e-07
-1.30129e-06
-1.1273e-07
-1.24481e-06
-1.13155e-07
-1.18828e-06
-1.13362e-07
-1.13181e-06
-1.13348e-07
-1.07548e-06
-1.13121e-07
-1.0194e-06
-1.12685e-07
-9.63656e-07
-1.12054e-07
-9.08344e-07
-1.11234e-07
-8.53548e-07
-1.1024e-07
-7.99348e-07
-1.09079e-07
-7.45819e-07
-1.07766e-07
-6.93025e-07
-1.06309e-07
-6.41027e-07
-1.04727e-07
-5.89875e-07
-1.03029e-07
-5.39613e-07
-1.01239e-07
-4.90272e-07
-9.93659e-08
-4.41881e-07
-9.74353e-08
-3.94452e-07
-9.54574e-08
-3.47992e-07
-9.34651e-08
-3.02494e-07
-9.1465e-08
-2.57944e-07
-8.94932e-08
-2.14309e-07
-8.75602e-08
-1.71553e-07
-8.57046e-08
-1.29619e-07
-8.39321e-08
-8.84419e-08
-8.22927e-08
-4.79353e-08
-8.07871e-08
-8.01829e-09
-7.94466e-08
3.1365e-08
-7.82608e-08
7.02752e-08
-7.72551e-08
1.08898e-07
-7.64535e-08
1.47464e-07
-7.58892e-08
1.86298e-07
-7.54869e-08
2.25651e-07
-7.53268e-08
2.65663e-07
-7.55147e-08
3.0646e-07
-7.61919e-08
3.48266e-07
-7.74447e-08
3.91284e-07
-7.93025e-08
4.3573e-07
-8.16699e-08
4.81752e-07
-8.44384e-08
5.29432e-07
-8.74158e-08
5.78673e-07
-9.03358e-08
6.29156e-07
-9.26626e-08
6.79953e-07
-9.33157e-08
7.29744e-07
-9.02679e-08
7.7377e-07
-7.78976e-08
-3.56713e-08
8.15186e-07
5.37153e-09
-3.16652e-08
3.78169e-09
-2.48747e-08
-1.64738e-09
-1.41525e-08
-9.58152e-09
-3.88866e-09
-1.93841e-08
5.67956e-09
-3.07682e-08
1.45566e-08
-4.3634e-08
2.27127e-08
-5.80117e-08
3.01075e-08
-7.39713e-08
3.67274e-08
-9.15952e-08
4.2611e-08
-1.10914e-07
4.78512e-08
-1.3193e-07
5.25777e-08
-1.54591e-07
5.69307e-08
-1.78832e-07
6.10393e-08
-2.04548e-07
6.5007e-08
-2.31645e-07
6.89053e-08
-2.60001e-07
7.27721e-08
-2.8951e-07
7.66159e-08
-3.20044e-07
8.04218e-08
-3.51495e-07
8.416e-08
-3.83733e-07
8.77925e-08
-4.16652e-07
9.12789e-08
-4.50132e-07
9.45811e-08
-4.84076e-07
9.76662e-08
-5.18378e-07
1.00508e-07
-5.5296e-07
1.03087e-07
-5.87737e-07
1.05392e-07
-6.22647e-07
1.07417e-07
-6.57619e-07
1.09162e-07
-6.92614e-07
1.1064e-07
-7.27589e-07
1.11866e-07
-7.62535e-07
1.12861e-07
-7.97429e-07
1.13645e-07
-8.32274e-07
1.14242e-07
-8.67057e-07
1.14675e-07
-9.0179e-07
1.14966e-07
-9.36465e-07
1.1514e-07
-9.711e-07
1.15216e-07
-1.00569e-06
1.15216e-07
-1.04025e-06
1.15156e-07
-1.07476e-06
1.15055e-07
-1.10923e-06
1.14924e-07
-1.14364e-06
1.14773e-07
-1.17798e-06
1.14606e-07
-1.21226e-06
1.14425e-07
-1.24646e-06
1.14229e-07
-1.28058e-06
1.1402e-07
-1.31461e-06
1.13794e-07
-1.34855e-06
1.13549e-07
-1.38239e-06
1.13283e-07
-1.41611e-06
1.12991e-07
-1.44972e-06
1.12669e-07
-1.48319e-06
1.12314e-07
-1.51651e-06
1.1192e-07
-1.54967e-06
1.11483e-07
-1.58266e-06
1.10997e-07
-1.61545e-06
1.10458e-07
-1.64802e-06
1.0986e-07
-1.68036e-06
1.09198e-07
-1.71244e-06
1.08466e-07
-1.74423e-06
1.07661e-07
-1.77572e-06
1.06775e-07
-1.80687e-06
1.05806e-07
-1.83767e-06
1.04747e-07
-1.86807e-06
1.03594e-07
-1.89805e-06
1.02344e-07
-1.92758e-06
1.00991e-07
-1.95662e-06
9.95318e-08
-1.98515e-06
9.79636e-08
-2.01312e-06
9.62822e-08
-2.04051e-06
9.4485e-08
-2.06727e-06
9.25683e-08
-2.09337e-06
9.053e-08
-2.11877e-06
8.8367e-08
-2.14344e-06
8.60775e-08
-2.16733e-06
8.36591e-08
-2.1904e-06
8.11112e-08
-2.21262e-06
7.84317e-08
-2.23394e-06
7.56197e-08
-2.25433e-06
7.26732e-08
-2.27373e-06
6.9592e-08
-2.29211e-06
6.63744e-08
-2.30943e-06
6.30203e-08
-2.32565e-06
5.95282e-08
-2.34072e-06
5.58991e-08
-2.35461e-06
5.21322e-08
-2.36727e-06
4.82286e-08
-2.37867e-06
4.41881e-08
-2.38875e-06
4.00108e-08
-2.39749e-06
3.56974e-08
-2.40487e-06
3.12469e-08
-2.41086e-06
2.66612e-08
-2.41544e-06
2.19458e-08
-2.41858e-06
1.71075e-08
-2.42028e-06
1.216e-08
-2.42052e-06
7.12302e-09
-2.41927e-06
2.02138e-09
-2.4165e-06
-3.13202e-09
-2.41212e-06
-8.35113e-09
-2.40606e-06
-1.36584e-08
-2.39829e-06
-1.90561e-08
-2.38877e-06
-2.45345e-08
-2.37745e-06
-3.00855e-08
-2.36433e-06
-3.56989e-08
-2.34937e-06
-4.1366e-08
-2.33257e-06
-4.70749e-08
-2.3139e-06
-5.28157e-08
-2.29337e-06
-5.85761e-08
-2.27098e-06
-6.43449e-08
-2.24672e-06
-7.01085e-08
-2.2206e-06
-7.58543e-08
-2.19263e-06
-8.15676e-08
-2.16284e-06
-8.72335e-08
-2.13125e-06
-9.28364e-08
-2.09787e-06
-9.83598e-08
-2.06275e-06
-1.03787e-07
-2.02592e-06
-1.09102e-07
-1.98743e-06
-1.14286e-07
-1.94733e-06
-1.19321e-07
-1.90568e-06
-1.24188e-07
-1.86253e-06
-1.28867e-07
-1.81795e-06
-1.33341e-07
-1.77201e-06
-1.37593e-07
-1.72481e-06
-1.41613e-07
-1.67642e-06
-1.45387e-07
-1.62694e-06
-1.48909e-07
-1.57645e-06
-1.52181e-07
-1.52504e-06
-1.55187e-07
-1.47281e-06
-1.57895e-07
-1.41987e-06
-1.60304e-07
-1.3663e-06
-1.62425e-07
-1.3122e-06
-1.64249e-07
-1.25768e-06
-1.65762e-07
-1.20284e-06
-1.66958e-07
-1.14777e-06
-1.67831e-07
-1.0926e-06
-1.68379e-07
-1.0374e-06
-1.68604e-07
-9.82296e-07
-1.6851e-07
-9.27365e-07
-1.68104e-07
-8.72701e-07
-1.67395e-07
-8.18393e-07
-1.66399e-07
-7.64527e-07
-1.65132e-07
-7.11182e-07
-1.6361e-07
-6.58431e-07
-1.61849e-07
-6.06339e-07
-1.5987e-07
-5.54966e-07
-1.5769e-07
-5.04361e-07
-1.55332e-07
-4.54571e-07
-1.52818e-07
-4.05626e-07
-1.50174e-07
-3.57555e-07
-1.47424e-07
-3.1037e-07
-1.44597e-07
-2.64082e-07
-1.41721e-07
-2.18683e-07
-1.3883e-07
-1.74161e-07
-1.35952e-07
-1.30486e-07
-1.33123e-07
-8.76252e-08
-1.30377e-07
-4.5522e-08
-1.27754e-07
-4.12047e-09
-1.25283e-07
3.66477e-08
-1.23002e-07
7.68594e-08
-1.20944e-07
1.16638e-07
-1.19164e-07
1.56124e-07
-1.1769e-07
1.95482e-07
-1.16552e-07
2.34874e-07
-1.15789e-07
2.74489e-07
-1.15443e-07
3.14574e-07
-1.15516e-07
3.55383e-07
-1.16076e-07
3.97125e-07
-1.17202e-07
4.39976e-07
-1.18985e-07
4.84106e-07
-1.21522e-07
5.29686e-07
-1.24827e-07
5.76873e-07
-1.28806e-07
6.25786e-07
-1.33298e-07
6.76462e-07
-1.38043e-07
7.28797e-07
-1.42621e-07
7.82478e-07
-1.46299e-07
8.36873e-07
-1.47665e-07
8.91015e-07
-1.44371e-07
9.43593e-07
-1.3044e-07
-9.2117e-08
1.00007e-06
-4.44337e-09
-2.72416e-08
-1.40533e-08
-1.52867e-08
-2.55952e-08
-2.62164e-09
-3.83842e-08
8.88915e-09
-5.21911e-08
1.94792e-08
-6.69566e-08
2.93128e-08
-8.26975e-08
3.84471e-08
-9.94923e-08
4.68931e-08
-1.17433e-07
5.46614e-08
-1.36617e-07
6.17855e-08
-1.571e-07
6.83281e-08
-1.78907e-07
7.43751e-08
-2.02005e-07
8.00223e-08
-2.26335e-07
8.53605e-08
-2.51798e-07
9.0464e-08
-2.78285e-07
9.53842e-08
-3.05666e-07
1.00148e-07
-3.33821e-07
1.04762e-07
-3.62616e-07
1.09213e-07
-3.91942e-07
1.13479e-07
-4.21685e-07
1.17531e-07
-4.51755e-07
1.21341e-07
-4.82061e-07
1.24883e-07
-5.12539e-07
1.28137e-07
-5.43123e-07
1.31088e-07
-5.73773e-07
1.33728e-07
-6.04444e-07
1.36059e-07
-6.3512e-07
1.38084e-07
-6.65781e-07
1.39818e-07
-6.96428e-07
1.41278e-07
-7.27054e-07
1.42486e-07
-7.57669e-07
1.43466e-07
-7.88271e-07
1.44241e-07
-8.18874e-07
1.44836e-07
-8.4948e-07
1.45275e-07
-8.80103e-07
1.4558e-07
-9.10742e-07
1.45774e-07
-9.41412e-07
1.45877e-07
-9.72105e-07
1.45904e-07
-1.00283e-06
1.45873e-07
-1.03358e-06
1.45796e-07
-1.06434e-06
1.45683e-07
-1.09511e-06
1.45541e-07
-1.12589e-06
1.45374e-07
-1.15665e-06
1.45187e-07
-1.18741e-06
1.44978e-07
-1.21814e-06
1.44747e-07
-1.24884e-06
1.44492e-07
-1.2795e-06
1.44209e-07
-1.31012e-06
1.43894e-07
-1.34067e-06
1.43543e-07
-1.37116e-06
1.43151e-07
-1.40156e-06
1.42711e-07
-1.43186e-06
1.42218e-07
-1.46205e-06
1.41667e-07
-1.4921e-06
1.4105e-07
-1.52201e-06
1.40361e-07
-1.55175e-06
1.39593e-07
-1.5813e-06
1.38741e-07
-1.61064e-06
1.37797e-07
-1.63974e-06
1.36755e-07
-1.66858e-06
1.35609e-07
-1.69713e-06
1.34352e-07
-1.72537e-06
1.32979e-07
-1.75327e-06
1.31484e-07
-1.78079e-06
1.29861e-07
-1.80791e-06
1.28105e-07
-1.8346e-06
1.26212e-07
-1.86081e-06
1.24176e-07
-1.88653e-06
1.21994e-07
-1.9117e-06
1.1966e-07
-1.93631e-06
1.17172e-07
-1.96031e-06
1.14526e-07
-1.98366e-06
1.11718e-07
-2.00632e-06
1.08745e-07
-2.02827e-06
1.05606e-07
-2.04946e-06
1.02297e-07
-2.06985e-06
9.88181e-08
-2.08939e-06
9.51662e-08
-2.10806e-06
9.13399e-08
-2.12581e-06
8.73383e-08
-2.14259e-06
8.31602e-08
-2.15837e-06
7.88049e-08
-2.17312e-06
7.42719e-08
-2.18678e-06
6.95616e-08
-2.19932e-06
6.46744e-08
-2.2107e-06
5.96112e-08
-2.22088e-06
5.43733e-08
-2.22982e-06
4.89626e-08
-2.23748e-06
4.33794e-08
-2.24385e-06
3.76272e-08
-2.2489e-06
3.1709e-08
-2.25258e-06
2.56316e-08
-2.25488e-06
1.94041e-08
-2.25576e-06
1.30387e-08
-2.25519e-06
6.55008e-09
-2.25312e-06
-4.86065e-11
-2.24951e-06
-6.75396e-09
-2.24429e-06
-1.3575e-08
-2.23743e-06
-2.05197e-08
-2.22891e-06
-2.75854e-08
-2.2187e-06
-3.47608e-08
-2.20676e-06
-4.20347e-08
-2.19307e-06
-4.93924e-08
-2.17763e-06
-5.68216e-08
-2.1604e-06
-6.43061e-08
-2.14139e-06