/*--------------------------------*- C++ -*----------------------------------*\
| =========                 |                                                 |
| \\      /  F ield         | OpenFOAM: The Open Source CFD Toolbox           |
|  \\    /   O peration     | Version:  2406                                  |
|   \\  /    A nd           | Website:  www.openfoam.com                      |
|    \\/     M anipulation  |                                                 |
\*---------------------------------------------------------------------------*/
FoamFile
{
    version     2.0;
    format      ascii;
    arch        "LSB;label=32;scalar=64";
    class       volVectorField;
    location    "200";
    object      U;
}
// * * * * * * * * * * * * * * * * * * * * * * * * * * * * * * * * * * * * * //

dimensions      [0 1 -1 0 0 0 0];

internalField   nonuniform List<vector> 
12225
(
(9.84118 -0.956373 0)
(9.59253 -0.887947 0)
(9.31755 -0.594491 0)
(9.01471 -0.370011 0)
(8.72577 -0.225983 0)
(8.46713 -0.137916 0)
(8.23996 -0.0844153 0)
(8.04179 -0.051595 0)
(7.86972 -0.0313212 0)
(7.7207 -0.0185931 0)
(7.59156 -0.0106521 0)
(7.47923 -0.00571116 0)
(7.38153 -0.00271016 0)
(7.29646 -0.0010002 0)
(7.22238 -0.000120669 0)
(7.16023 -0.000490554 0)
(7.10059 0.00257929 0)
(7.0724 -0.0177279 0)
(10.0722 0.255858 0)
(10.1867 0.418355 0)
(10.2285 0.384144 0)
(10.2296 0.310409 0)
(10.2114 0.245691 0)
(10.1794 0.195451 0)
(10.1334 0.157662 0)
(10.0758 0.12967 0)
(10.0105 0.108856 0)
(9.94086 0.0930934 0)
(9.86925 0.0809214 0)
(9.79744 0.0713084 0)
(9.72649 0.0635123 0)
(9.65757 0.0570577 0)
(9.59104 0.0513012 0)
(9.52789 0.0466992 0)
(9.46859 0.0401942 0)
(9.41533 0.0403099 0)
(10.0032 0.0599582 0)
(10.0309 0.0482987 0)
(10.0614 0.0100053 0)
(10.0897 5.90228e-06 0)
(10.1151 0.00817251 0)
(10.1376 0.0194298 0)
(10.1547 0.0290199 0)
(10.1657 0.0365033 0)
(10.1714 0.0420637 0)
(10.173 0.045924 0)
(10.1711 0.0483846 0)
(10.1662 0.0497519 0)
(10.1591 0.0502598 0)
(10.1502 0.0500586 0)
(10.1401 0.0491846 0)
(10.1291 0.0476402 0)
(10.1183 0.0451465 0)
(10.1062 0.0403603 0)
(9.99715 0.00991869 0)
(10.009 0.0260974 0)
(10.0342 0.0383081 0)
(10.0554 0.0533963 0)
(10.0721 0.0649271 0)
(10.0875 0.0702663 0)
(10.1014 0.0714218 0)
(10.1134 0.0706641 0)
(10.1236 0.0690827 0)
(10.1325 0.0671105 0)
(10.1404 0.0649382 0)
(10.1472 0.0626915 0)
(10.1532 0.0603912 0)
(10.1585 0.058017 0)
(10.1631 0.0554325 0)
(10.1674 0.0524978 0)
(10.1713 0.0487287 0)
(10.1742 0.043037 0)
(9.99907 0.00681082 0)
(10.0082 0.0343064 0)
(10.0279 0.0483582 0)
(10.0436 0.0549009 0)
(10.0558 0.058368 0)
(10.0678 0.0595481 0)
(10.0793 0.0593186 0)
(10.0897 0.0585741 0)
(10.0991 0.057678 0)
(10.1077 0.0566683 0)
(10.1157 0.0555327 0)
(10.1232 0.0542673 0)
(10.1302 0.0528489 0)
(10.1369 0.0512209 0)
(10.1434 0.049265 0)
(10.1495 0.0468238 0)
(10.1553 0.0435761 0)
(10.1605 0.0392206 0)
(10.0002 0.00924481 0)
(10.0079 0.0334131 0)
(10.0236 0.0440804 0)
(10.0369 0.0484083 0)
(10.0478 0.0518688 0)
(10.0585 0.0542652 0)
(10.069 0.0552969 0)
(10.0785 0.0554582 0)
(10.0871 0.0551433 0)
(10.0951 0.0544846 0)
(10.1026 0.0535339 0)
(10.1097 0.0523345 0)
(10.1165 0.0508973 0)
(10.1231 0.0491932 0)
(10.1294 0.0471375 0)
(10.1354 0.0446116 0)
(10.1411 0.0414483 0)
(10.1462 0.0375293 0)
(10.0003 0.00912708 0)
(10.007 0.0287612 0)
(10.0201 0.038899 0)
(10.0322 0.0440336 0)
(10.0425 0.0481353 0)
(10.0525 0.0509372 0)
(10.0622 0.0521815 0)
(10.0711 0.0524143 0)
(10.0793 0.0521003 0)
(10.0868 0.0514153 0)
(10.094 0.050428 0)
(10.1008 0.0491838 0)
(10.1074 0.0476983 0)
(10.1136 0.0459456 0)
(10.1196 0.043863 0)
(10.1253 0.0413644 0)
(10.1306 0.0383617 0)
(10.1354 0.0348192 0)
(10.0004 0.00814611 0)
(10.006 0.0247143 0)
(10.0171 0.0348893 0)
(10.0283 0.0405359 0)
(10.0381 0.0446135 0)
(10.0475 0.0473266 0)
(10.0566 0.0486049 0)
(10.0652 0.048919 0)
(10.073 0.0486824 0)
(10.0804 0.0480623 0)
(10.0873 0.0471264 0)
(10.0939 0.0459172 0)
(10.1002 0.044453 0)
(10.1062 0.0427167 0)
(10.1119 0.040668 0)
(10.1173 0.0382538 0)
(10.1223 0.0354386 0)
(10.1267 0.0322409 0)
(10.0004 0.0072111 0)
(10.0052 0.0215215 0)
(10.0146 0.0312741 0)
(10.0248 0.0369544 0)
(10.034 0.0408517 0)
(10.0429 0.0434793 0)
(10.0516 0.0448419 0)
(10.0598 0.0452815 0)
(10.0675 0.0451468 0)
(10.0746 0.0446034 0)
(10.0814 0.0437245 0)
(10.0878 0.042555 0)
(10.0939 0.0411194 0)
(10.0997 0.0394135 0)
(10.1052 0.037418 0)
(10.1103 0.0351091 0)
(10.115 0.0324845 0)
(10.1192 0.0295922 0)
(10.0004 0.00637249 0)
(10.0045 0.0187484 0)
(10.0125 0.0277525 0)
(10.0216 0.033293 0)
(10.0303 0.0370398 0)
(10.0387 0.0395918 0)
(10.0469 0.0410073 0)
(10.0548 0.0415371 0)
(10.0622 0.0414778 0)
(10.0692 0.040995 0)
(10.0758 0.0401667 0)
(10.082 0.0390404 0)
(10.088 0.037646 0)
(10.0936 0.0359914 0)
(10.0989 0.0340744 0)
(10.1038 0.0318936 0)
(10.1083 0.0294659 0)
(10.1123 0.026852 0)
(10.0004 0.00558297 0)
(10.0039 0.0162517 0)
(10.0107 0.0243904 0)
(10.0189 0.0296827 0)
(10.0269 0.0332588 0)
(10.0348 0.0356933 0)
(10.0426 0.0370997 0)
(10.0501 0.0376743 0)
(10.0573 0.037665 0)
(10.064 0.0372297 0)
(10.0704 0.0364487 0)
(10.0765 0.0353711 0)
(10.0823 0.0340307 0)
(10.0877 0.0324457 0)
(10.0928 0.030627 0)
(10.0975 0.0285886 0)
(10.1018 0.0263574 0)
(10.1057 0.0239983 0)
(10.0003 0.00487847 0)
(10.0034 0.0141516 0)
(10.0093 0.0214658 0)
(10.0167 0.0264356 0)
(10.0242 0.0298105 0)
(10.0316 0.0321001 0)
(10.039 0.033455 0)
(10.0461 0.0340378 0)
(10.053 0.0340547 0)
(10.0595 0.0336518 0)
(10.0657 0.0329095 0)
(10.0716 0.0318781 0)
(10.0772 0.0305947 0)
(10.0825 0.0290844 0)
(10.0874 0.0273673 0)
(10.0919 0.0254661 0)
(10.0961 0.0234119 0)
(10.0999 0.0212688 0)
(10.0003 0.00421775 0)
(10.003 0.0122264 0)
(10.0082 0.0187036 0)
(10.0148 0.023269 0)
(10.0217 0.0264035 0)
(10.0287 0.0285252 0)
(10.0357 0.0297985 0)
(10.0425 0.0303636 0)
(10.0491 0.0303906 0)
(10.0554 0.0300107 0)
(10.0614 0.0293028 0)
(10.0671 0.0283183 0)
(10.0725 0.0270962 0)
(10.0775 0.0256665 0)
(10.0823 0.0240554 0)
(10.0867 0.0222909 0)
(10.0907 0.0204046 0)
(10.0944 0.0184598 0)
(10.0003 0.00352941 0)
(10.0026 0.0102195 0)
(10.0071 0.0157401 0)
(10.0129 0.0197628 0)
(10.0193 0.0225626 0)
(10.0258 0.0244519 0)
(10.0323 0.0255908 0)
(10.0387 0.0261 0)
(10.045 0.0261143 0)
(10.051 0.0257464 0)
(10.0567 0.0250708 0)
(10.0622 0.0241387 0)
(10.0674 0.0229897 0)
(10.0723 0.0216571 0)
(10.0768 0.0201701 0)
(10.081 0.0185598 0)
(10.0849 0.0168561 0)
(10.0885 0.0151186 0)
(10.0002 0.00280971 0)
(10.0022 0.00812723 0)
(10.006 0.0125858 0)
(10.0112 0.015925 0)
(10.0169 0.0182776 0)
(10.0229 0.0198543 0)
(10.0289 0.0207936 0)
(10.035 0.0211963 0)
(10.0409 0.0211654 0)
(10.0466 0.020792 0)
(10.0521 0.0201431 0)
(10.0573 0.0192668 0)
(10.0622 0.0182017 0)
(10.0669 0.016981 0)
(10.0712 0.0156351 0)
(10.0752 0.014194 0)
(10.079 0.0126849 0)
(10.0824 0.0111604 0)
(10.0002 0.00205897 0)
(10.0019 0.00595242 0)
(10.0052 0.0092512 0)
(10.0097 0.0117645 0)
(10.0148 0.0135412 0)
(10.0202 0.014708 0)
(10.0258 0.0153684 0)
(10.0314 0.0156007 0)
(10.037 0.0154799 0)
(10.0424 0.0150746 0)
(10.0475 0.0144398 0)
(10.0525 0.0136173 0)
(10.0572 0.012642 0)
(10.0616 0.011544 0)
(10.0657 0.010351 0)
(10.0696 0.00908967 0)
(10.0732 0.0077822 0)
(10.0765 0.00647402 0)
(10.0002 0.00127573 0)
(10.0016 0.00368337 0)
(10.0045 0.00572241 0)
(10.0084 0.00726812 0)
(10.013 0.00833052 0)
(10.018 0.0089744 0)
(10.0231 0.00926392 0)
(10.0283 0.00925135 0)
(10.0335 0.00898543 0)
(10.0386 0.00851231 0)
(10.0435 0.007871 0)
(10.0482 0.0070937 0)
(10.0526 0.00620711 0)
(10.0568 0.00523557 0)
(10.0608 0.00420059 0)
(10.0645 0.00312342 0)
(10.068 0.00201949 0)
(10.0712 0.00092642 0)
(10.0002 0.000444595 0)
(10.0014 0.00126945 0)
(10.004 0.00192711 0)
(10.0075 0.00235548 0)
(10.0117 0.00255415 0)
(10.0163 0.00254659 0)
(10.0211 0.00235892 0)
(10.026 0.00201484 0)
(10.0309 0.00153791 0)
(10.0357 0.000950947 0)
(10.0403 0.000274168 0)
(10.0448 -0.000474883 0)
(10.0491 -0.00128065 0)
(10.0531 -0.00212854 0)
(10.0569 -0.0030052 0)
(10.0605 -0.00389744 0)
(10.0639 -0.00479631 0)
(10.067 -0.00567366 0)
(10.0001 -0.000477286 0)
(10.0014 -0.00141217 0)
(10.0038 -0.00231218 0)
(10.0071 -0.00317378 0)
(10.0112 -0.00399299 0)
(10.0156 -0.00478032 0)
(10.0202 -0.00555011 0)
(10.025 -0.00630968 0)
(10.0297 -0.00706195 0)
(10.0343 -0.00780857 0)
(10.0388 -0.00855173 0)
(10.0432 -0.0092918 0)
(10.0473 -0.0100284 0)
(10.0513 -0.0107593 0)
(10.055 -0.0114825 0)
(10.0585 -0.012194 0)
(10.0618 -0.012893 0)
(10.0649 -0.0135613 0)
(10.0002 -0.00135026 0)
(10.0014 -0.00396143 0)
(10.004 -0.00635482 0)
(10.0075 -0.0084456 0)
(10.0117 -0.0102209 0)
(10.0163 -0.0117353 0)
(10.021 -0.0130447 0)
(10.0258 -0.0141842 0)
(10.0306 -0.0151814 0)
(10.0353 -0.0160661 0)
(10.0399 -0.016863 0)
(10.0442 -0.0175908 0)
(10.0484 -0.0182621 0)
(10.0523 -0.0188872 0)
(10.0561 -0.0194732 0)
(10.0596 -0.0200256 0)
(10.0629 -0.0205487 0)
(10.0659 -0.0210335 0)
(10.0002 -0.00209019 0)
(10.0016 -0.00615711 0)
(10.0043 -0.00985349 0)
(10.0083 -0.0129514 0)
(10.0129 -0.0154573 0)
(10.0177 -0.0175214 0)
(10.0227 -0.0192418 0)
(10.0277 -0.0206584 0)
(10.0327 -0.0218163 0)
(10.0376 -0.0227735 0)
(10.0422 -0.0235786 0)
(10.0467 -0.0242668 0)
(10.0509 -0.0248629 0)
(10.0549 -0.0253875 0)
(10.0587 -0.0258553 0)
(10.0623 -0.0262779 0)
(10.0656 -0.0266639 0)
(10.0687 -0.0270102 0)
(10.0002 -0.00277409 0)
(10.0017 -0.00829041 0)
(10.0049 -0.01332 0)
(10.0094 -0.0173342 0)
(10.0145 -0.020414 0)
(10.0198 -0.0228911 0)
(10.0251 -0.024919 0)
(10.0305 -0.0265379 0)
(10.0357 -0.0278086 0)
(10.0408 -0.0288092 0)
(10.0456 -0.0296024 0)
(10.0502 -0.0302326 0)
(10.0545 -0.0307371 0)
(10.0586 -0.0311457 0)
(10.0624 -0.0314827 0)
(10.066 -0.031764 0)
(10.0694 -0.0320036 0)
(10.0725 -0.0321997 0)
(10.0001 -0.00338263 0)
(10.0017 -0.0103992 0)
(10.0055 -0.0167712 0)
(10.0109 -0.021614 0)
(10.0166 -0.0252374 0)
(10.0223 -0.0280969 0)
(10.028 -0.0303201 0)
(10.0337 -0.0319916 0)
(10.0392 -0.0332552 0)
(10.0445 -0.034229 0)
(10.0495 -0.0349782 0)
(10.0543 -0.0355473 0)
(10.0587 -0.0359769 0)
(10.0629 -0.0363022 0)
(10.0668 -0.0365498 0)
(10.0705 -0.0367383 0)
(10.0739 -0.0368825 0)
(10.0771 -0.0369878 0)
(10.0001 -0.00387138 0)
(10.0016 -0.0128908 0)
(10.0061 -0.0203192 0)
(10.0124 -0.0253815 0)
(10.0188 -0.029439 0)
(10.025 -0.0329016 0)
(10.0312 -0.0355014 0)
(10.0373 -0.0372688 0)
(10.0431 -0.0384689 0)
(10.0486 -0.039303 0)
(10.0538 -0.0398685 0)
(10.0587 -0.0402313 0)
(10.0633 -0.0404494 0)
(10.0676 -0.0405713 0)
(10.0716 -0.040629 0)
(10.0753 -0.0406448 0)
(10.0788 -0.0406312 0)
(10.0821 -0.0405857 0)
(9.9998 -0.00354886 0)
(10.0012 -0.0165496 0)
(10.007 -0.0255196 0)
(10.0141 -0.0296928 0)
(10.0207 -0.0330137 0)
(10.0273 -0.036468 0)
(10.0341 -0.0393991 0)
(10.0409 -0.0415752 0)
(10.0473 -0.0431554 0)
(10.0532 -0.0442868 0)
(10.0587 -0.0450499 0)
(10.064 -0.0455195 0)
(10.0688 -0.0457722 0)
(10.0733 -0.0458724 0)
(10.0775 -0.045868 0)
(10.0814 -0.0457921 0)
(10.0851 -0.0456704 0)
(10.0885 -0.0455129 0)
(9.99829 4.6491e-07 0)
(9.99797 -0.0176187 0)
(10.0068 -0.0315019 0)
(10.0162 -0.0375861 0)
(10.0234 -0.040283 0)
(10.0303 -0.0418336 0)
(10.0379 -0.0427887 0)
(10.0455 -0.0434826 0)
(10.0526 -0.044082 0)
(10.0594 -0.0445946 0)
(10.0657 -0.0449876 0)
(10.0715 -0.0452728 0)
(10.077 -0.0454718 0)
(10.082 -0.0456125 0)
(10.0867 -0.0457093 0)
(10.091 -0.0457785 0)
(10.095 -0.0458254 0)
(10.0986 -0.0458176 0)
(9.99413 0.00277667 0)
(9.98996 -0.00759989 0)
(10.0032 -0.0228585 0)
(10.0185 -0.0396786 0)
(10.0302 -0.0530696 0)
(10.0403 -0.0608405 0)
(10.0501 -0.0643761 0)
(10.0593 -0.0656232 0)
(10.0677 -0.0657101 0)
(10.0756 -0.0650842 0)
(10.0829 -0.0640283 0)
(10.0897 -0.0627325 0)
(10.0959 -0.0613592 0)
(10.1015 -0.0599889 0)
(10.1067 -0.0586868 0)
(10.1113 -0.0574821 0)
(10.1156 -0.0564006 0)
(10.1195 -0.0553952 0)
(9.9942 -0.0305073 0)
(9.99526 -0.0134566 0)
(10.0086 0.0215201 0)
(10.0272 0.0320184 0)
(10.047 0.0241441 0)
(10.0668 0.0116022 0)
(10.085 -0.00011562 0)
(10.1007 -0.0103311 0)
(10.1139 -0.0189707 0)
(10.1251 -0.026043 0)
(10.1343 -0.0316436 0)
(10.1418 -0.0360147 0)
(10.1476 -0.039388 0)
(10.1519 -0.0419807 0)
(10.155 -0.0439562 0)
(10.1568 -0.0454838 0)
(10.1578 -0.0466929 0)
(10.1578 -0.0477291 0)
(10.0368 -0.209413 0)
(10.1083 -0.365899 0)
(10.1423 -0.352747 0)
(10.1567 -0.298035 0)
(10.1697 -0.247623 0)
(10.182 -0.206792 0)
(10.1884 -0.174355 0)
(10.1867 -0.148991 0)
(10.1774 -0.129274 0)
(10.1619 -0.11375 0)
(10.1413 -0.101352 0)
(10.1168 -0.0913225 0)
(10.0894 -0.0831287 0)
(10.0597 -0.0763655 0)
(10.0287 -0.0707519 0)
(9.99685 -0.0661082 0)
(9.96463 -0.0622844 0)
(9.93274 -0.0595812 0)
(9.92866 0.765531 0)
(9.83924 0.742069 0)
(9.70533 0.52443 0)
(9.52634 0.348782 0)
(9.33184 0.22769 0)
(9.1406 0.146985 0)
(8.95879 0.0935818 0)
(8.78888 0.057988 0)
(8.63228 0.0341231 0)
(8.48961 0.0181061 0)
(8.36024 0.00744136 0)
(8.24336 0.00046345 0)
(8.13781 -0.00408431 0)
(8.04251 -0.0069379 0)
(7.95635 -0.0086158 0)
(7.87836 -0.00955383 0)
(7.80717 -0.0100359 0)
(7.74242 -0.0106476 0)
(0.00576263 -0.0115289 -6.8553e-19)
(0.019002 -0.0208519 5.86099e-19)
(0.0333942 -0.0226531 -3.81047e-19)
(0.0463117 -0.0197165 -1.16437e-19)
(0.0554308 -0.0143018 1.76864e-19)
(0.0602413 -0.00803508 -4.24735e-20)
(0.0608391 -0.00197785 -3.95678e-20)
(0.0576237 0.00314698 1.77475e-19)
(0.051535 0.00702452 -1.02615e-19)
(0.043267 0.00974958 3.60283e-20)
(0.0334016 0.0116289 1.57916e-20)
(0.0223723 0.012976 -2.17371e-19)
(0.0104388 0.0139932 3.71059e-19)
(-0.00226538 0.0146802 4.2177e-19)
(-0.0157514 0.0151054 3.62682e-20)
(-0.0301112 0.0155037 1.46675e-19)
(-0.045428 0.0160257 5.43451e-20)
(-0.0618102 0.0167112 8.73479e-20)
(-0.0793647 0.0175673 1.19273e-19)
(-0.0981935 0.018574 1.16892e-20)
(-0.118376 0.0197136 -3.53926e-20)
(-0.139977 0.0209533 2.61738e-19)
(-0.163033 0.0222669 -2.9786e-20)
(-0.187555 0.0236148 2.15584e-19)
(-0.213528 0.0249687 -3.99741e-20)
(-0.240915 0.0262941 1.35831e-19)
(-0.269657 0.0275702 6.10857e-20)
(-0.299683 0.028769 3.5403e-20)
(-0.330907 0.0298715 -1.25311e-19)
(-0.363231 0.0308557 -2.01914e-20)
(-0.396546 0.0317173 -1.23383e-19)
(-0.430744 0.0324486 6.88215e-20)
(-0.465713 0.0330535 4.68036e-20)
(-0.501344 0.0335252 -5.46646e-20)
(-0.537529 0.0338686 -7.83252e-20)
(-0.574172 0.0340817 -4.91842e-21)
(-0.611182 0.0341781 2.61918e-20)
(-0.648481 0.0341683 6.09527e-20)
(-0.685998 0.0340796 4.04253e-20)
(-0.723673 0.0339306 8.90817e-20)
(-0.76145 0.0337529 3.36627e-20)
(-0.79928 0.0335654 8.48262e-21)
(-0.837167 0.0333952 -1.08733e-19)
(-0.87515 0.0332328 -2.15537e-20)
(-0.913208 0.0330727 4.2824e-20)
(-0.951341 0.0329098 2.12676e-21)
(-0.989545 0.0327488 9.54805e-20)
(-1.02782 0.032583 2.97416e-20)
(-1.06615 0.032418 1.16762e-20)
(-1.10454 0.0322472 -9.28733e-20)
(-1.14298 0.0320765 7.33981e-20)
(-1.18147 0.0318986 6.5432e-21)
(-1.22 0.0317191 8.95545e-20)
(-1.25854 0.0315314 6.9339e-20)
(-1.2971 0.0313401 2.66085e-20)
(-1.33566 0.0311374 6.1431e-20)
(-1.37421 0.0309281 8.24819e-20)
(-1.41272 0.0307053 -8.98434e-20)
(-1.45118 0.0304733 3.5834e-20)
(-1.48957 0.0302243 4.07252e-20)
(-1.52787 0.0299631 -9.75098e-20)
(-1.56604 0.029683 -6.38974e-20)
(-1.60407 0.0293881 4.98813e-20)
(-1.64193 0.0290711 5.98656e-20)
(-1.67958 0.0287368 1.68159e-20)
(-1.717 0.0283782 -6.47533e-20)
(-1.75416 0.0280005 7.13569e-21)
(-1.79101 0.0275969 3.38275e-21)
(-1.82751 0.0271729 1.69008e-20)
(-1.86364 0.0267218 8.25852e-20)
(-1.89935 0.0262491 -4.11153e-21)
(-1.9346 0.0257481 -5.96454e-20)
(-1.96935 0.0252246 6.41764e-20)
(-2.00355 0.0246721 2.33489e-20)
(-2.03717 0.0240966 -3.7708e-20)
(-2.07015 0.0234918 3.1275e-20)
(-2.10245 0.0228642 -4.80277e-21)
(-2.13402 0.0222084 6.004e-20)
(-2.16481 0.02153 2.75934e-20)
(-2.19477 0.0208227 -4.06499e-20)
(-2.22386 0.0200924 -1.15832e-20)
(-2.25202 0.0193339 2.28613e-21)
(-2.27919 0.0185523 4.53001e-20)
(-2.30534 0.0177411 5.60846e-20)
(-2.33042 0.0169059 4.92312e-20)
(-2.35435 0.0160403 -4.98162e-20)
(-2.3771 0.0151478 1.05644e-19)
(-2.3986 0.0142199 -4.1807e-21)
(-2.41879 0.0132551 7.52206e-20)
(-2.4376 0.0122456 -1.06177e-19)
(-2.45499 0.0111805 -5.67402e-20)
(-2.47091 0.0100513 4.75162e-20)
(-2.48527 0.00884959 6.88185e-20)
(-2.49799 0.00757139 -1.03965e-20)
(-2.50897 0.00622325 -6.41318e-20)
(-2.51813 0.00483218 -6.34055e-20)
(-2.52533 0.00344603 6.47515e-20)
(-2.53043 0.00211137 -3.47257e-20)
(-2.53332 0.000870544 -8.24207e-20)
(-2.53422 -0.000255028 -3.57159e-20)
(-2.53337 -0.00131472 8.7629e-20)
(-2.53073 -0.00236575 4.37484e-20)
(-2.52631 -0.00341876 6.49917e-20)
(-2.52008 -0.00447823 -3.94798e-20)
(-2.51202 -0.00554252 1.24879e-20)
(-2.50212 -0.00661306 4.30543e-21)
(-2.49033 -0.00768691 -7.82874e-21)
(-2.47666 -0.00876477 -1.68085e-20)
(-2.46109 -0.00984361 -2.49907e-20)
(-2.4436 -0.0109235 -4.02071e-20)
(-2.42421 -0.0120013 -5.44095e-20)
(-2.4029 -0.0130762 2.84096e-20)
(-2.37969 -0.0141455 -3.90475e-20)
(-2.35458 -0.0152071 -3.75427e-20)
(-2.32759 -0.0162588 6.48974e-20)
(-2.29874 -0.0172975 -3.75225e-21)
(-2.26805 -0.0183212 -3.97589e-20)
(-2.23556 -0.0193256 -4.03147e-20)
(-2.20131 -0.0203091 3.60572e-20)
(-2.16534 -0.0212664 2.60131e-21)
(-2.12769 -0.022196 1.00147e-20)
(-2.08841 -0.0230925 -6.24104e-21)
(-2.04757 -0.0239571 -1.71966e-20)
(-2.00524 -0.0247838 1.35374e-20)
(-1.9615 -0.0255765 -1.09351e-20)
(-1.91641 -0.0263275 8.82531e-21)
(-1.87005 -0.0270397 1.02759e-20)
(-1.82251 -0.0277045 -2.94644e-21)
(-1.77387 -0.0283287 5.85282e-21)
(-1.72422 -0.0288969 -2.69865e-21)
(-1.67367 -0.0294156 -6.92023e-22)
(-1.62229 -0.0298793 8.33141e-22)
(-1.57019 -0.0302885 2.19307e-20)
(-1.51746 -0.0306354 -8.80151e-21)
(-1.46422 -0.0309238 3.25329e-21)
(-1.41056 -0.0311469 -2.44509e-20)
(-1.3566 -0.0313076 -4.34758e-20)
(-1.30242 -0.0314016 4.94643e-20)
(-1.24814 -0.0314314 2.42378e-20)
(-1.19384 -0.0313981 -6.24651e-21)
(-1.13963 -0.0313031 1.21475e-19)
(-1.08559 -0.0311496 1.09053e-19)
(-1.03182 -0.0309373 -5.82798e-20)
(-0.978407 -0.0306695 -6.21233e-20)
(-0.925428 -0.0303451 -1.09709e-19)
(-0.872962 -0.0299696 -1.57675e-19)
(-0.821079 -0.0295421 -1.17339e-19)
(-0.769844 -0.0290696 -1.8749e-19)
(-0.71931 -0.0285516 9.15154e-20)
(-0.669527 -0.0279957 8.40784e-20)
(-0.620534 -0.0274012 1.43254e-19)
(-0.572363 -0.0267782 1.05093e-19)
(-0.525035 -0.026127 2.94825e-19)
(-0.478564 -0.0254576 1.96988e-20)
(-0.432952 -0.0247706 1.24632e-20)
(-0.38819 -0.0240787 -2.14375e-19)
(-0.34426 -0.0233827 3.34791e-19)
(-0.30113 -0.0226954 -1.9625e-19)
(-0.258756 -0.0220207 2.69101e-20)
(-0.217084 -0.0213705 9.5967e-20)
(-0.176051 -0.0207466 3.45087e-20)
(-0.135561 -0.0201776 8.65532e-20)
(-0.0955146 -0.0196749 4.03357e-19)
(-0.0558408 -0.0192465 1.95605e-19)
(-0.0164706 -0.0188755 9.08254e-20)
(0.0226386 -0.0184364 1.25535e-19)
(0.0609588 -0.0177144 3.34483e-19)
(0.0985355 -0.016861 -1.34987e-20)
(0.136227 -0.0161405 3.27859e-19)
(0.174189 -0.0156139 4.35992e-19)
(0.212745 -0.0153123 3.90624e-19)
(0.252266 -0.0152092 -1.30834e-20)
(0.293063 -0.0152605 3.11241e-20)
(0.335351 -0.0154245 -6.75423e-20)
(0.379272 -0.0156399 -7.76441e-19)
(0.424567 -0.0157963 3.51988e-19)
(0.471489 -0.0156744 2.37384e-19)
(0.515578 -0.0147349 -4.4335e-19)
(0.565259 -0.0119365 -4.1311e-19)
(0.566917 0.00462099 6.15788e-19)
(0.00759895 -0.0399362 1.43864e-18)
(0.0179637 -0.0469283 -5.83317e-19)
(0.0228056 -0.0384727 -1.64919e-19)
(0.0239255 -0.0267675 3.23284e-19)
(0.0221206 -0.0144396 6.29371e-20)
(0.0177898 -0.00257843 3.83369e-20)
(0.0113437 0.00812035 -3.67103e-20)
(0.00296198 0.0172046 -1.85241e-19)
(-0.0073988 0.0245225 -1.29627e-20)
(-0.0196867 0.0302331 -1.91434e-19)
(-0.0338208 0.0346717 1.1219e-20)
(-0.0497014 0.0382178 -2.96928e-21)
(-0.0672445 0.0412135 7.13381e-20)
(-0.0863573 0.0439157 1.01164e-20)
(-0.106915 0.0465216 -2.24716e-20)
(-0.128841 0.0491792 -1.84125e-19)
(-0.152116 0.0519779 -3.83782e-20)
(-0.176728 0.0549423 1.60152e-19)
(-0.202658 0.0580557 -1.78074e-19)
(-0.229871 0.0612705 4.75899e-20)
(-0.258319 0.0645305 4.12103e-21)
(-0.287939 0.06777 8.38731e-20)
(-0.318654 0.0709287 9.24217e-20)
(-0.350374 0.0739458 7.44039e-20)
(-0.383 0.0767724 9.16753e-20)
(-0.416425 0.0793645 -4.93118e-20)
(-0.450541 0.0816953 1.16045e-20)
(-0.485242 0.0837463 1.38479e-20)
(-0.520421 0.0855115 -5.03416e-20)
(-0.555983 0.086981 -3.34862e-20)
(-0.591839 0.0881524 -5.20266e-20)
(-0.62791 0.0890309 -1.56192e-20)
(-0.664121 0.0896401 -1.13171e-19)
(-0.700412 0.0900016 4.54618e-20)
(-0.736734 0.0901435 -6.36802e-20)
(-0.77305 0.090088 7.4394e-20)
(-0.809336 0.0898646 -6.96463e-20)
(-0.845579 0.0894951 1.89328e-20)
(-0.881773 0.0890121 4.72043e-20)
(-0.917917 0.0884429 -3.6308e-20)
(-0.954014 0.0878242 2.98549e-20)
(-0.990059 0.0871825 -1.20486e-20)
(-1.02605 0.086542 -4.60134e-20)
(-1.06196 0.0859012 -1.33987e-19)
(-1.0978 0.0852612 -9.47918e-20)
(-1.13357 0.0846168 1.10925e-21)
(-1.16924 0.0839714 -1.16257e-19)
(-1.20484 0.0833192 -3.15089e-20)
(-1.24034 0.0826633 1.10836e-19)
(-1.27575 0.0819968 1.6871e-19)
(-1.31107 0.081323 3.97528e-20)
(-1.34628 0.0806347 -1.72232e-20)
(-1.38137 0.0799346 -1.81159e-20)
(-1.41634 0.0792156 -5.79387e-20)
(-1.45117 0.0784796 -4.45026e-20)
(-1.48586 0.0777185 -1.16557e-19)
(-1.52037 0.0769344 -1.37042e-19)
(-1.5547 0.0761196 -3.03838e-20)
(-1.58883 0.0752762 2.02626e-20)
(-1.62273 0.0743957 -1.03382e-19)
(-1.65639 0.073481 7.92498e-20)
(-1.68978 0.0725248 -3.3741e-20)
(-1.72288 0.0715297 -1.35695e-19)
(-1.75565 0.0704876 1.02663e-20)
(-1.78808 0.0694021 9.79652e-20)
(-1.82013 0.0682658 -3.75536e-20)
(-1.85177 0.0670828 4.1501e-21)
(-1.88297 0.0658464 -8.71126e-20)
(-1.91371 0.0645612 2.9938e-20)
(-1.94394 0.0632206 -5.11414e-20)
(-1.97363 0.0618298 9.16688e-22)
(-2.00275 0.0603822 -6.28016e-20)
(-2.03126 0.0588833 1.96791e-21)
(-2.05912 0.0573267 -3.71747e-20)
(-2.0863 0.0557184 4.91626e-20)
(-2.11276 0.0540528 -8.46667e-20)
(-2.13846 0.0523367 1.10045e-20)
(-2.16337 0.0505653 -8.52408e-20)
(-2.18743 0.0487447 3.32765e-21)
(-2.21061 0.0468692 6.70162e-20)
(-2.23287 0.0449454 1.31254e-20)
(-2.25416 0.0429684 -3.91372e-20)
(-2.27445 0.0409443 -5.84426e-20)
(-2.2937 0.0388678 3.33714e-20)
(-2.31186 0.0367459 9.39196e-20)
(-2.32888 0.0345746 -2.96323e-20)
(-2.34474 0.0323604 -1.04275e-21)
(-2.35938 0.0300984 -2.48446e-21)
(-2.37275 0.0277923 5.94319e-20)
(-2.38481 0.025439 2.07991e-19)
(-2.39553 0.0230347 4.51518e-20)
(-2.4049 0.0205767 8.43401e-20)
(-2.41287 0.0180603 -1.82329e-19)
(-2.41942 0.01548 -8.73616e-20)
(-2.42453 0.0128278 5.6627e-20)
(-2.42822 0.010106 1.14714e-19)
(-2.43054 0.00733966 -6.27872e-20)
(-2.43156 0.00458627 -2.54203e-20)
(-2.4314 0.00192084 -4.35725e-20)
(-2.42986 -0.000630839 6.29095e-20)
(-2.42669 -0.00311587 -8.68051e-20)
(-2.42183 -0.00557765 -6.48431e-20)
(-2.41523 -0.00802874 -4.14883e-20)
(-2.40687 -0.0104725 1.36172e-19)
(-2.39671 -0.0129055 -1.52315e-20)
(-2.38473 -0.0153256 9.44568e-21)
(-2.37091 -0.0177267 4.87077e-20)
(-2.35525 -0.020106 1.03826e-19)
(-2.33772 -0.0224576 -1.40562e-20)
(-2.31832 -0.0247783 -3.8971e-20)
(-2.29706 -0.0270617 2.93095e-21)
(-2.27392 -0.029304 -6.97279e-20)
(-2.24893 -0.0314989 7.42625e-20)
(-2.22209 -0.0336414 2.72197e-20)
(-2.19341 -0.0357257 2.12531e-20)
(-2.16293 -0.0377463 5.10093e-20)
(-2.13066 -0.0396978 5.94838e-20)
(-2.09664 -0.0415747 -3.04089e-20)
(-2.06092 -0.0433715 1.91347e-20)
(-2.02354 -0.0450808 2.63348e-20)
(-1.98454 -0.0466976 3.04424e-20)
(-1.94397 -0.0482146 -3.357e-21)
(-1.90191 -0.0496308 -1.36328e-21)
(-1.85842 -0.0509406 -2.02496e-20)
(-1.81359 -0.0521479 -1.73684e-20)
(-1.76748 -0.0532504 -1.63421e-20)
(-1.72018 -0.0542564 1.42129e-20)
(-1.67179 -0.0551438 -1.71934e-21)
(-1.62237 -0.055908 -4.8239e-21)
(-1.57201 -0.0565568 -9.5871e-22)
(-1.52083 -0.0571015 -1.35769e-22)
(-1.4689 -0.0575265 2.67367e-21)
(-1.41634 -0.0578372 2.46043e-21)
(-1.36322 -0.0580264 -3.07924e-21)
(-1.30967 -0.0581004 -4.24054e-21)
(-1.25578 -0.0580547 -5.34487e-21)
(-1.20165 -0.0578958 1.06054e-20)
(-1.14738 -0.0576223 -6.52669e-20)
(-1.09308 -0.0572405 7.27548e-22)
(-1.03884 -0.0567545 5.20497e-20)
(-0.984741 -0.0561721 -3.2801e-20)
(-0.930887 -0.0555003 4.22574e-20)
(-0.877364 -0.0547455 1.86545e-20)
(-0.824252 -0.0539143 -3.67488e-20)
(-0.771628 -0.0530128 -1.15524e-20)
(-0.719564 -0.0520484 -5.76129e-20)
(-0.668122 -0.0510285 -3.52252e-20)
(-0.61736 -0.0499611 7.5171e-20)
(-0.567326 -0.048855 1.19615e-19)
(-0.51806 -0.0477181 -1.62075e-19)
(-0.469593 -0.0465597 4.89564e-20)
(-0.421949 -0.0453883 9.54531e-21)
(-0.37514 -0.0442157 -2.64268e-19)
(-0.329167 -0.0430487 6.42281e-21)
(-0.284023 -0.0418997 3.99611e-21)
(-0.239687 -0.0407774 -8.27096e-20)
(-0.196126 -0.0396947 1.03633e-19)
(-0.153294 -0.0386578 1.44154e-19)
(-0.11113 -0.0376842 1.4845e-19)
(-0.0695634 -0.0367782 1.30472e-19)
(-0.0285067 -0.0359508 -1.91812e-19)
(0.0121502 -0.0352102 2.4259e-20)
(0.0523848 -0.0345337 -5.09067e-20)
(0.092327 -0.033915 1.34688e-19)
(0.132263 -0.0333694 -3.98656e-20)
(0.172453 -0.0328408 1.58167e-19)
(0.213172 -0.032331 -1.5379e-19)
(0.254646 -0.0319394 -2.34321e-19)
(0.297062 -0.0317826 -3.50846e-19)
(0.340591 -0.0319111 -1.62383e-19)
(0.385435 -0.032325 -7.20565e-20)
(0.431827 -0.0329777 3.41373e-20)
(0.47999 -0.0338103 2.05349e-20)
(0.53007 -0.0347407 -2.35587e-19)
(0.582115 -0.0356559 -2.17266e-19)
(0.635846 -0.0363438 2.97259e-19)
(0.691141 -0.0363301 3.60547e-19)
(0.744989 -0.0348362 3.35743e-19)
(0.802034 -0.0290903 1.68393e-19)
(0.834015 -0.00913089 -3.60749e-19)
(0.00332482 -0.0591277 1.55917e-19)
(0.00472421 -0.0522345 6.66383e-19)
(0.00138745 -0.0344415 4.18461e-19)
(-0.00458942 -0.0168582 -2.85956e-19)
(-0.0124893 -0.000483077 6.87685e-20)
(-0.0219246 0.0145047 -4.2282e-20)
(-0.0327119 0.0279776 -2.12989e-20)
(-0.0448254 0.0398441 1.87897e-19)
(-0.0583238 0.0500848 1.62437e-19)
(-0.0732829 0.0587983 1.44507e-19)
(-0.089758 0.066203 6.8018e-20)
(-0.107766 0.0725902 6.65174e-20)
(-0.127288 0.0782638 -2.15077e-19)
(-0.148272 0.0834981 -1.33626e-19)
(-0.17064 0.0885068 4.74243e-20)
(-0.194305 0.0934262 -1.00075e-19)
(-0.219173 0.098327 9.5045e-20)
(-0.245143 0.103224 1.33787e-20)
(-0.272113 0.108092 1.29589e-19)
(-0.299979 0.112875 1.08757e-19)
(-0.328636 0.11751 -9.83254e-20)
(-0.357979 0.121925 -2.50142e-19)
(-0.387908 0.126056 -4.22361e-20)
(-0.418326 0.129848 -2.53074e-19)
(-0.449143 0.133255 5.25162e-20)
(-0.480278 0.136247 7.64167e-20)
(-0.511659 0.138804 -2.85084e-20)
(-0.54322 0.140916 9.14991e-20)
(-0.574904 0.142589 4.61341e-20)
(-0.606657 0.143841 9.58397e-20)
(-0.638444 0.144699 -4.52233e-20)
(-0.670246 0.145193 -2.73812e-20)
(-0.702048 0.145358 1.32344e-20)
(-0.733841 0.145234 -1.57893e-20)
(-0.765622 0.144859 -2.30688e-20)
(-0.797391 0.144271 -1.52807e-21)
(-0.82915 0.14351 -8.24308e-20)
(-0.860906 0.14261 2.94963e-20)
(-0.892664 0.141604 -7.29516e-20)
(-0.924429 0.140522 -2.39232e-20)
(-0.956201 0.139393 1.97554e-20)
(-0.987977 0.138237 -1.87713e-20)
(-1.01975 0.13707 -3.67075e-20)
(-1.05151 0.135898 1.01014e-19)
(-1.08325 0.134722 1.11787e-19)
(-1.11497 0.133543 -7.46373e-20)
(-1.14667 0.132361 3.39166e-20)
(-1.17833 0.131173 -3.92594e-20)
(-1.20996 0.129978 -6.95362e-20)
(-1.24154 0.12877 -3.40048e-20)
(-1.27308 0.127549 -3.64873e-20)
(-1.30455 0.126308 6.85972e-20)
(-1.33596 0.125046 1.15128e-20)
(-1.36729 0.123756 5.38156e-20)
(-1.39853 0.122435 6.42175e-21)
(-1.42966 0.121078 7.82185e-21)
(-1.46067 0.119681 3.17328e-20)
(-1.49154 0.118239 4.9359e-20)
(-1.52226 0.116748 -8.6184e-21)
(-1.5528 0.115202 1.62337e-19)
(-1.58315 0.113601 1.17839e-19)
(-1.61328 0.111938 2.7903e-20)
(-1.64316 0.110212 6.25566e-20)
(-1.67278 0.108418 -1.4594e-19)
(-1.7021 0.106554 2.14099e-20)
(-1.7311 0.104617 8.57136e-20)
(-1.75976 0.102606 -1.38024e-19)
(-1.78803 0.100518 -6.26681e-20)
(-1.8159 0.0983536 4.22902e-20)
(-1.84333 0.0961091 3.32635e-20)
(-1.87028 0.0937858 -7.07793e-20)
(-1.89673 0.0913812 1.2265e-19)
(-1.92263 0.0888968 1.4315e-20)
(-1.94796 0.0863304 4.44078e-20)
(-1.97267 0.083684 -1.45948e-19)
(-1.99674 0.0809566 1.41551e-19)
(-2.02012 0.078151 2.97653e-20)
(-2.04278 0.0752665 -6.14711e-20)
(-2.06467 0.0723056 -1.12092e-19)
(-2.08575 0.0692675 -5.56924e-20)
(-2.106 0.0661552 8.94039e-21)
(-2.12536 0.0629683 2.40957e-20)
(-2.14379 0.0597097 -1.13737e-20)
(-2.16126 0.0563788 -8.50961e-20)
(-2.17773 0.0529797 -2.34041e-20)
(-2.19315 0.0495124 -2.58159e-20)
(-2.20749 0.0459808 1.54606e-20)
(-2.2207 0.042385 -5.35676e-20)
(-2.23274 0.0387277 -7.68408e-20)
(-2.24357 0.0350097 -9.45426e-20)
(-2.25317 0.0312319 3.04876e-20)
(-2.2615 0.0273978 -1.11319e-19)
(-2.26856 0.0235134 1.08087e-19)
(-2.2743 0.0195877 9.34802e-21)
(-2.27871 0.0156345 -2.54107e-20)
(-2.28178 0.0116738 -4.71967e-20)
(-2.28349 0.0077293 1.62597e-20)
(-2.2838 0.00381614 7.8101e-20)
(-2.28265 -8.07667e-05 6.40101e-20)
(-2.27996 -0.00398415 2.8262e-20)
(-2.27567 -0.00789366 3.37121e-20)
(-2.26975 -0.0118005 1.6708e-20)
(-2.26214 -0.0157001 1.53776e-20)
(-2.25283 -0.0195865 -2.11372e-19)
(-2.24178 -0.0234536 4.12611e-20)
(-2.22898 -0.0272937 3.70657e-20)
(-2.2144 -0.0310996 -7.13304e-20)
(-2.19802 -0.0348637 6.02166e-20)
(-2.17985 -0.0385783 -1.98165e-20)
(-2.15988 -0.0422354 8.45793e-20)
(-2.13809 -0.0458269 6.07395e-20)
(-2.1145 -0.0493443 4.20256e-20)
(-2.08912 -0.0527788 -2.71847e-20)
(-2.06195 -0.0561215 3.2427e-20)
(-2.03302 -0.0593632 2.06336e-20)
(-2.00234 -0.0624952 -2.3887e-20)
(-1.96994 -0.0655082 -3.50347e-20)
(-1.93587 -0.068394 1.06689e-19)
(-1.90015 -0.0711427 1.5665e-20)
(-1.86283 -0.073745 -3.39988e-20)
(-1.82396 -0.0761912 -8.21075e-20)
(-1.7836 -0.0784734 -1.00067e-20)
(-1.74181 -0.0805856 -7.41823e-22)
(-1.69866 -0.0825236 -2.44883e-20)
(-1.65422 -0.0842844 1.97109e-21)
(-1.60858 -0.0858678 1.575e-20)
(-1.56182 -0.087282 -3.79773e-20)
(-1.51402 -0.0885163 1.06106e-20)
(-1.46526 -0.0895518 3.18882e-21)
(-1.41564 -0.0903954 8.16496e-21)
(-1.36525 -0.0910613 -8.32844e-22)
(-1.31417 -0.0915427 -2.20496e-21)
(-1.26251 -0.0918375 -1.5071e-20)
(-1.21036 -0.0919438 -2.16012e-21)
(-1.15782 -0.0918644 1.57664e-20)
(-1.10498 -0.0916005 -4.96727e-21)
(-1.05195 -0.0911577 -5.83638e-21)
(-0.998814 -0.0905404 1.95735e-20)
(-0.945676 -0.0897565 2.79908e-20)
(-0.892621 -0.0888147 -2.26137e-21)
(-0.839738 -0.087727 1.40743e-20)