/*--------------------------------*- C++ -*----------------------------------*\
| =========                 |                                                 |
| \\      /  F ield         | OpenFOAM: The Open Source CFD Toolbox           |
|  \\    /   O peration     | Version:  2406                                  |
|   \\  /    A nd           | Website:  www.openfoam.com                      |
|    \\/     M anipulation  |                                                 |
\*---------------------------------------------------------------------------*/
FoamFile
{
    version     2.0;
    format      ascii;
    arch        "LSB;label=32;scalar=64";
    class       volScalarField;
    location    "282";
    object      epsilon;
}
// * * * * * * * * * * * * * * * * * * * * * * * * * * * * * * * * * * * * * //

dimensions      [0 2 -3 0 0 0 0];

internalField   nonuniform List<scalar> 
12225
(
1085.71
2467.78
3645.43
4414.74
4812.13
4980.49
4972.15
4932.32
4837.74
4728.37
4620.49
4517.15
4425.49
4339.51
4269.03
4198.39
4150.99
4085.23
81.2303
262.522
438.55
584.513
691.141
762.913
804.736
829.971
846.78
856.86
866.58
873.732
882.995
890.967
900.639
910.042
918.909
933.007
20.577
51.1754
83.4685
112.538
136.922
156.201
170.147
179.903
186.373
190.792
193.485
195.625
196.863
198.388
199.317
201.027
201.393
206.411
14.7577
21.8682
30.0192
38.5025
46.2152
53.0397
58.6212
63.2646
66.7555
69.6471
71.6133
73.333
74.3191
75.3431
75.7314
76.4013
76.453
77.4168
14.361
16.3335
18.456
21.4876
24.4382
27.2623
29.7361
31.9834
33.8188
35.4796
36.7452
37.9278
38.7444
39.5762
40.0575
40.638
40.9199
41.3582
14.6446
14.954
15.4273
16.4564
17.6088
18.8289
19.9697
21.0769
22.0337
22.9483
23.6896
24.416
24.9562
25.5277
25.8932
26.3467
26.5728
26.9689
14.7184
14.6387
14.6737
14.8757
15.2175
15.6834
16.1628
16.6724
17.1383
17.6109
18.0104
18.4208
18.7385
19.0879
19.3216
19.6218
19.7751
20.068
14.7545
14.5907
14.4691
14.4209
14.4418
14.5153
14.6476
14.8246
15.0022
15.2023
15.3792
15.5761
15.7326
15.9149
16.0403
16.207
16.2966
16.4699
14.7641
14.5919
14.4345
14.3029
14.2031
14.1371
14.0973
14.0987
14.1107
14.1415
14.1782
14.2346
14.2793
14.3426
14.3854
14.449
14.4865
14.5564
14.7656
14.5942
14.432
14.2828
14.1465
14.0296
13.9256
13.8437
13.7744
13.7224
13.6771
13.6482
13.6204
13.6063
13.5892
13.5835
13.5731
13.5818
14.7657
14.5945
14.4323
14.2806
14.137
14.0051
13.8816
13.7705
13.6679
13.5777
13.4938
13.4219
13.3537
13.2971
13.2406
13.1973
13.1473
13.1179
14.7657
14.5944
14.4323
14.2801
14.1357
14.0007
13.8728
13.754
13.6417
13.5385
13.4409
13.3523
13.2677
13.1922
13.1185
13.0549
12.9895
12.9368
14.7657
14.5941
14.4321
14.2796
14.1353
13.9995
13.8707
13.7496
13.6347
13.5271
13.4247
13.3294
13.2383
13.1542
13.0731
12.999
12.9266
12.8616
14.7657
14.594
14.4319
14.2792
14.1349
13.9987
13.8698
13.7481
13.6326
13.5236
13.4201
13.3224
13.2294
13.1417
13.0581
12.9795
12.9043
12.8337
14.7657
14.5938
14.4317
14.2789
14.1345
13.9981
13.8691
13.7471
13.6315
13.5221
13.4183
13.32
13.2265
13.1379
13.0536
12.9737
12.8975
12.8253
14.7657
14.5938
14.4316
14.2786
14.1341
13.9976
13.8685
13.7463
13.6306
13.5211
13.4171
13.3185
13.2249
13.136
13.0515
12.9713
12.8948
12.8222
14.7657
14.5937
14.4315
14.2784
14.1338
13.9972
13.868
13.7457
13.6299
13.5202
13.4162
13.3174
13.2237
13.1347
13.0501
12.9696
12.8931
12.8203
14.7657
14.5937
14.4314
14.2783
14.1336
13.9969
13.8677
13.7453
13.6294
13.5196
13.4155
13.3167
13.2228
13.1337
13.049
12.9685
12.8919
12.819
14.7657
14.5937
14.4314
14.2782
14.1336
13.9969
13.8675
13.7451
13.6292
13.5194
13.4152
13.3163
13.2224
13.1333
13.0485
12.9679
12.8913
12.8184
14.7657
14.5937
14.4315
14.2783
14.1337
13.997
13.8677
13.7453
13.6294
13.5196
13.4154
13.3166
13.2227
13.1336
13.0489
12.9683
12.8917
12.8188
14.7657
14.5937
14.4316
14.2785
14.1339
13.9972
13.868
13.7457
13.63
13.5202
13.4163
13.3176
13.2241
13.1352
13.051
12.9708
12.8948
12.8224
14.7657
14.5938
14.4317
14.2786
14.1343
13.9977
13.869
13.7472
13.6325
13.524
13.4219
13.3252
13.2344
13.1482
13.0676
12.9907
12.9192
12.8504
14.7657
14.5937
14.4319
14.2789
14.1361
14.002
13.8782
13.7628
13.6573
13.5595
13.4707
13.3883
13.3141
13.2446
13.1829
13.1237
13.0729
13.0213
14.7644
14.5922
14.4335
14.2871
14.1628
14.0551
13.9689
13.8978
13.8459
13.8048
13.7783
13.758
13.7483
13.7412
13.7424
13.7433
13.7528
13.7515
14.7478
14.5944
14.4764
14.4101
14.4234
14.4613
14.5554
14.6706
14.8169
14.9612
15.1237
15.2711
15.4319
15.5683
15.7196
15.8372
15.978
16.0719
14.6504
14.7821
14.9369
15.3416
15.9227
16.5508
17.2338
17.878
18.5377
19.1217
19.7127
20.2096
20.72
21.1248
21.5587
21.8755
22.2452
22.4805
14.572
16.1273
17.9726
20.4196
22.9236
25.2654
27.5468
29.5525
31.4906
33.1025
34.6855
35.9137
37.1756
38.0656
39.0608
39.6723
40.4608
40.8521
16.5442
25.8796
36.7208
46.5546
55.8657
64.2733
72.1012
78.7409
84.8017
89.5901
94.0126
97.1742
100.312
102.189
104.451
105.414
107.132
107.488
45.7965
105.211
164.439
217.233
267.842
313.448
353.657
386.102
413.216
433.649
450.586
462.692
472.88
479.758
486.797
490.285
496.128
497.461
632.343
1081.16
1534.74
1880.99
2183.47
2431.77
2631.53
2773.03
2876.15
2932.21
2969.07
2970.17
2963.16
2946.23
2918.32
2885.07
2849.27
2811.95
0.167602
0.16859
0.29218
0.427722
0.55967
0.68156
0.791791
0.890648
0.979389
1.06454
1.15143
1.24088
1.33552
1.43778
1.54916
1.67008
1.80053
1.94131
2.097
2.28187
2.51991
2.81577
3.16283
3.56183
4.0192
4.54405
5.14684
5.83813
6.62743
7.52093
8.52027
9.62939
10.8499
12.18
13.6196
15.1668
16.8208
18.5805
20.4452
22.4148
24.4903
26.6742
28.9708
31.3875
33.9356
36.6321
39.5024
42.5841
45.8109
49.185
52.7103
56.3921
60.2339
64.241
68.4173
72.7676
77.2961
82.0074
86.9054
91.9945
97.2782
102.76
108.444
114.333
120.429
126.734
133.251
139.982
146.926
154.085
161.458
169.045
176.845
184.856
193.076
201.501
210.128
218.953
227.97
237.174
246.558
256.115
265.838
275.718
285.745
295.909
306.2
316.607
327.115
337.714
348.387
359.12
369.894
380.691
391.49
402.269
413
423.658
434.214
444.645
454.945
465.148
475.284
485.247
495.075
504.734
514.217
523.504
532.58
541.428
550.031
558.375
566.442
574.218
581.689
588.839
595.656
602.128
608.24
613.984
619.346
624.318
628.889
633.051
636.798
640.125
643.024
645.495
647.531
649.131
650.281
651.017
651.398
651.241
650.606
649.502
648.07
646.289
644.008
641.347
638.283
634.833
631.008
626.819
622.282
617.405
612.201
606.683
600.867
594.767
588.399
581.779
574.923
567.847
560.569
553.104
545.471
537.685
529.764
521.725
513.587
505.371
497.104
488.837
480.764
474.584
471.168
468.09
465.011
461.901
458.762
455.593
452.393
449.146
445.818
442.331
438.526
433.928
427.644
403.26
0.65151
0.38615
0.351019
0.365077
0.399083
0.44397
0.496446
0.555926
0.623337
0.700557
0.788983
0.889228
1.00268
1.13108
1.27625
1.44002
1.62437
1.83166
2.0647
2.32608
2.62328
2.96102
3.34055
3.76353
4.23248
4.75006
5.31805
5.93603
6.59945
7.29765
8.04012
8.82609
9.65487
10.5249
11.4362
12.3875
13.3762
14.4035
15.4707
16.5797
17.7328
18.9331
20.1838
21.4885
22.8511
24.2751
25.7632
27.3158
28.9279
30.6026
32.3412
34.1456
36.0171
37.9575
39.9683
42.0507
44.2063
46.4364
48.7419
51.1241
53.5839
56.1221
58.7394
61.4365
64.2138
67.0715
70.0099
73.0289
76.1283
79.3077
82.5666
85.9043
89.3196
92.8117
96.3789
100.02
103.732
107.515
111.365
115.28
119.258
123.294
127.387
131.532
135.726
139.965
144.245
148.56
152.906
157.277
161.668
166.072
170.482
174.892
179.293
183.677
188.038
192.367
196.662
200.925
205.169
209.43
213.725
217.952
222.127
226.238
230.28
234.247
238.133
241.93
245.632
249.233
252.728
256.11
259.373
262.512
265.521
268.395
271.13
273.72
276.161
278.449
280.58
282.551
284.358
285.999
287.471
288.773
289.903
290.86
291.642
292.253
292.694
292.936
292.993
292.875
292.607
292.182
291.569
290.795
289.854
288.753
287.493
286.08
284.518
282.81
280.961
278.976
276.86
274.619
272.259
269.785
267.203
264.52
261.742
258.875
255.925
252.9
249.806
246.65
243.439
240.182
236.889
233.581
230.327
227.451
225.129
222.942
220.777
218.611
216.444
214.276
212.11
209.947
207.788
205.634
203.468
201.331
199.135
195.429
1.41225
0.692615
0.547035
0.518052
0.528977
0.561902
0.611069
0.674321
0.751438
0.843486
0.951886
1.07803
1.22329
1.389
1.57647
1.78701
2.02212
2.28359
2.57371
2.89549
3.24871
3.63264
4.04695
4.49112
4.96445
5.46625
5.99604
6.55412
7.14287
7.76863
8.42611
9.11515
9.83656
10.5918
11.3692
12.1725
13.0109
13.8862
14.8002
15.7543
16.7503
17.7895
18.8734
20.0036
21.1813
22.4075
23.6834
25.0092
26.3847
27.8111
29.2895
30.821
32.4065
34.0471
35.7437
37.4973
39.3088
41.179
43.1086
45.0981
47.1482
49.2594
51.432
53.6665
55.9631
58.322
60.7432
63.2267
65.7722
68.3795
71.0481
73.7775
76.5668
79.4154
82.322
85.2856
88.3048
91.3781
94.5037
97.6799
100.904
104.175
107.49
110.845
114.239
117.668
121.129
124.619
128.133
131.667
135.219
138.782
142.353
145.927
149.5
153.067
156.625
160.171
163.705
167.227
170.741
174.251
177.742
181.189
184.594
187.948
191.246
194.484
197.656
200.756
203.78
206.723
209.578
212.342
215.01
217.576
220.037
222.389
224.627
226.747
228.745
230.619
232.366
233.981
235.464
236.81
238.02
239.091
240.021
240.81
241.456
241.961
242.322
242.524
242.58
242.501
242.289
241.941
241.449
240.822
240.059
239.165
238.143
236.994
235.723
234.334
232.829
231.214
229.492
227.667
225.746
223.731
221.628
219.443
217.179
214.843
212.44
209.975
207.453
204.88
202.263
199.608
196.923
194.223
191.548
189.014
186.684
184.439
182.221
180.014
177.816
175.628
173.454
171.3
169.173
167.086
165.056
163.161
161.411
159.664
2.21276
0.995003
0.7615
0.705718
0.708386
0.741798
0.797182
0.871679
0.964823
1.07726
1.21009
1.36446
1.5414
1.74168
1.96587
2.21435
2.4874
2.78528
3.10817
3.456
3.82813
4.22376
4.64233
5.08354
5.54748
6.03462
6.54587
7.08259
7.64639
8.2387
8.85939
9.50872
10.1868
10.8928
11.6356
12.4172
13.2356
14.0917
14.9869
15.9225
16.8997
17.9187
18.9803
20.0853
21.2342
22.4271
23.6636
24.9448
26.2729
27.6491
29.0743
30.5494
32.0755
33.6534
35.2842
36.9686
38.7076
40.5019
42.3525
44.2598
46.2246
48.2474
50.3287
52.469
54.6688
56.9282
59.2476
61.6271
64.0667
66.5662
69.1254
71.7441
74.4217
77.1575
79.9509
82.8008
85.7062
88.6657
91.678
94.7413
97.8538
101.014
104.218
107.466
110.753
114.077
117.435
120.824
124.241
127.681
131.141
134.617
138.105
141.601
145.101
148.602
152.1
155.593
159.078
162.553
166.017
169.462
172.879
176.257
179.591
182.876
186.106
189.276
192.38
195.413
198.37
201.245
204.033
206.729
209.329
211.828
214.221
216.505
218.674
220.726
222.657
224.462
226.14
227.687
229.102
230.381
231.522
232.526
233.389
234.111
234.692
235.132
235.424
235.557
235.565
235.429
235.158
234.75
234.204
233.524
232.712
231.77
230.702
229.512
228.201
226.775
225.238
223.593
221.844
219.997
218.056
216.026
213.911
211.718
209.45
207.114
204.715
202.257
199.746
197.189
194.59
191.957
189.296
186.622
183.96
181.365
178.869
176.43
174.019
171.625
169.248
166.889
164.554
162.249
159.986
157.784
155.669
153.716
151.952
150.389
2.9258
1.28304
0.984242
0.910938
0.909693
0.946776
1.01065
1.0973
1.20565
1.33585
1.48851
1.66424
1.86344
2.08617
2.33221
2.60109
2.89222
3.20497
3.53873
3.89295
4.26718
4.66119
5.07511
5.50946
5.96512
6.4433
6.9454
7.47294
8.02742
8.61013
9.22214
9.86457
10.5387
11.246
11.9891
12.769
13.586
14.441
15.3347
16.2676
17.2405
18.2548
19.3114
20.411
21.5546
22.7431
23.978
25.2603
26.5901
27.9683
29.3959
30.874
32.4037
33.9859
35.6218
37.3125
39.0589
40.8621
42.7234
44.6436
46.6233
48.6632
50.7643
52.9271
55.1524
57.4408
59.7928
62.2087
64.6889
67.2336
69.8428
72.5163
75.2541
78.0557
80.9205
83.8479
86.8368
89.8862
92.9948
96.161
99.3831
102.659
105.987
109.364
112.787
116.255
119.762
123.308
126.886
130.495
134.13
137.787
141.462
145.15
148.847
152.55
156.254
159.954
163.646
167.326
170.986
174.62
178.222
181.783
185.297
188.759
192.162
195.5
198.767
201.958
205.066
208.086
211.012
213.838
216.56
219.172
221.669
224.048
226.303
228.43
230.426
232.286
234.009
235.59
237.027
238.319
239.462
240.456
241.3
241.992
242.532
242.92
243.14
243.211
243.14
242.917
242.547
242.032
241.371
240.568
239.626
238.548
237.337
235.997
234.533
232.948
231.247
229.435
227.516
225.496
223.379
221.172
218.879
216.505
214.058
211.541
208.962
206.325
203.636
200.902
198.129
195.323
192.492
189.647
186.807
184.003
181.253
178.545
175.864
173.206
170.571
167.963
165.387
162.854
160.377
157.977
155.687
153.577
151.666
149.929
3.51916
1.56231
1.20956
1.12226
1.11882
1.15989
1.23146
1.32826
1.44842
1.59149
1.75747
1.94638
2.15806
2.39202
2.64755
2.92377
3.2198
3.53486
3.86838
4.22007
4.58995
4.97841
5.38617
5.81428
6.26403
6.73689
7.2344
7.7581
8.30948
8.88993
9.50077
10.1433
10.8189
11.5289
12.2747
13.0573
13.8775
14.7363
15.6345
16.573
17.5527
18.5749
19.6403
20.7501
21.9053
23.107
24.3563
25.6542
27.0017
28.3999
29.85
31.3534
32.9112
34.5248
36.1954
37.9243
39.7129
41.5623
43.4737
45.4483
47.4876
49.5928
51.7652
54.0059
56.3158
58.6959
61.1471
63.6702
66.2658
68.9343
71.6762
74.4916
77.3806
80.343
83.3784
86.4862
89.6656
92.9156
96.235
99.622
103.075
106.592
110.17
113.808
117.501
121.247
125.042
128.883
132.766
136.686
140.639
144.62
148.625
152.648
156.685
160.73
164.778
168.823
172.858
176.879
180.876
184.844
188.775
192.661
196.495
200.271
203.981
207.619
211.177
214.65
218.03
221.31
224.485
227.549
230.495
233.318
236.012
238.572
240.994
243.272
245.403
247.382
249.207
250.874
252.38
253.723
254.901
255.913
256.758
257.434
257.942
258.276
258.426
258.425
258.258
257.925
257.43
256.775
255.962
254.993
253.873
252.606
251.195
249.645
247.961
246.147
244.21
242.154
239.984
237.707
235.329
232.855
230.292
227.645
224.922
222.128
219.27
216.354
213.386
210.374
207.323
204.241
201.136
198.017
194.9
191.803
188.741
185.712
182.711
179.738
176.794
173.884
171.018
168.204
165.46
162.808
160.281
157.939
155.788
153.746
3.99086
1.81708
1.42571
1.32809
1.32319
1.36728
1.4444
1.54811
1.67578
1.82633
1.99923
2.19405
2.41022
2.64701
2.90354
3.17893
3.47239
3.78334
4.11154
4.45707
4.82036
5.20219
5.60362
6.02591
6.47049
6.93887
7.43259
7.95314
8.50198
9.08052
9.69012
10.3321
11.0078
11.7184
12.4651
13.2492
14.0715
14.9334
15.8357
16.7797
17.7664
18.797
19.8727
20.9948
22.1644
23.3828
24.6513
25.9713
27.3441
28.7711
30.254
31.7941
33.3933
35.053
36.7748
38.5606
40.4118
42.3302
44.3174
46.3752
48.5052
50.7091
52.9886
55.3452
57.7802
60.2952
62.8914
65.5699
68.3317
71.1777
74.1086
77.1249
80.2268
83.4145
86.6876
90.0459
93.4884
97.0144
100.622
104.311
108.077
111.921
115.837
119.824
123.879
127.997
132.175
136.409
140.694
145.024
149.396
153.802
158.239
162.699
167.176
171.665
176.157
180.647
185.127
189.588
194.023
198.424
202.783
207.09
211.339
215.521
219.629
223.654
227.588
231.425
235.155
238.772
242.269
245.638
248.872
251.966
254.913
257.708
260.344
262.818
265.123
267.257
269.215
270.994
272.59
274.003
275.229
276.267
277.117
277.778
278.249
278.517
278.598
278.501
278.217
277.751
277.103
276.277
275.277
274.106
272.767
271.267
269.61
267.801
265.846
263.75
261.521
259.163
256.683
254.089
251.386
248.582
245.683
242.697
239.631
236.492
233.287
230.024
226.709
223.349
219.952
216.525
213.077
209.616
206.155
202.708
199.287
195.895
192.533
189.203
185.91
182.659
179.461
176.328
173.275
170.327
167.516
164.891
162.442
160.044
4.39458
2.05454
1.6298
1.52139
1.51348
1.55816
1.63776
1.74473
1.87567
2.02891
2.20351
2.3987
2.61376
2.84789
3.1003
3.37028
3.65728
3.96105
4.28163
4.6194
4.97507
5.34958
5.74412
6.16001
6.59865
7.06152
7.55011
8.06589
8.61031
9.18477
9.79066
10.4293
11.1021
11.8103
12.5551
13.3377
14.1596
15.0221
15.9265
16.8741
17.8662
18.9043
19.9897
21.1239
22.3085
23.5451
24.8351
26.1802
27.5822
29.0431
30.5647
32.149
33.7981
35.514
37.2986
39.1543
41.083
43.0869
45.1682
47.3292
49.572
51.8987
54.3115
56.8124
59.4034
62.0863
64.8629
67.7347
70.7033
73.7698
76.9352
80.2005
83.5661
87.0322
90.5989
94.2658
98.0323
101.897
105.859
109.917
114.067
118.308
122.637
127.049
131.543
136.112
140.753
145.46
150.228
155.051
159.924
164.839
169.79
174.769
179.769
184.783
189.801
194.816
199.819
204.8
209.75
214.661
219.522
224.324
229.058
233.716
238.286
242.762
247.133
251.391
255.526
259.531
263.397
267.116
270.681
274.085
277.32
280.38
283.259
285.951
288.452
290.756
292.86
294.76
296.454
297.938
299.211
300.271
301.119
301.753
302.17
302.361
302.352
302.134
301.709
301.079
300.248
299.219
297.996
296.584
294.988
293.213
291.267
289.154
286.882
284.457
281.886
279.176
276.336
273.373
270.293
267.107
263.82
260.442
256.98
253.442
249.837
246.173
242.456
238.696
234.9
231.076
227.232
223.378
219.523
215.682
211.862
208.072
204.315
200.596
196.92
193.296
189.733
186.246
182.851
179.572
176.439
173.491
170.705
167.924
5.23712
2.36387
1.84294
1.70469
1.68586
1.72592
1.80391
1.91035
2.04079
2.19292
2.36538
2.55721
2.76762
2.99586
3.24131
3.50349
3.78213
4.0772
4.38898
4.71803
5.06517
5.43144
5.81804
6.22628
6.65743
7.11274
7.59387
8.10232
8.63956
9.20704
9.80621
10.4385
11.1055
11.8088
12.5495
13.3288
14.1482
15.0092
15.9133
16.8622
17.8575
18.9011
19.995
21.1415
22.3419
23.598
24.9117
26.2845
27.7191
29.2181
30.784
32.4191
34.1261
35.9074
37.7657
39.7036
41.7237
43.8289
46.0219
48.3054
50.6822
53.1551
55.7266
58.3996
61.1764
64.0594
67.051
70.1531
73.3677
76.6964
80.1406
83.7013
87.3794
91.1754
95.0892
99.1206
103.269
107.533
111.911
116.401
121.001
125.707
130.516
135.424
140.426
145.517
150.693
155.946
161.271
166.66
172.106
177.602
183.139
188.708
194.301
199.908
205.52
211.126
216.716
222.281
227.808
233.287
238.708
244.06
249.333
254.515
259.596
264.566
269.415
274.132
278.708
283.133
287.398
291.493
295.411
299.143
302.682
306.02
309.151
312.069
314.768
317.243
319.491
321.507
323.288
324.832
326.138
327.203
328.029
328.615
328.952
329.049
328.914
328.545
327.945
327.119
326.068
324.798
323.314
321.622
319.727
317.637
315.358
312.898
310.264
307.464
304.507
301.401
298.154
294.776
291.274
287.659
283.939
280.122
276.219
272.239
268.189
264.079
259.918
255.715
251.477
247.214
242.933
238.645
234.359
230.087
225.837
221.619
217.438
213.301
209.216
205.19
201.237
197.369
193.604
189.965
186.478
183.176
180.024
176.848
6.27179
2.69968
2.05039
1.87032
1.83452
1.86548
1.93823
2.04091
2.16786
2.31607
2.48381
2.66993
2.87361
3.0942
3.33124
3.58444
3.85373
4.13929
4.44151
4.76095
5.0984
5.45515
5.8325
6.23192
6.65509
7.10326
7.57735
8.07868
8.60871
9.1689
9.76075
10.3858
11.0455
11.7415
12.4751
13.2481
14.0624
14.9198
15.8223
16.7718
17.7704
18.8199
19.9223
21.0799
22.2949
23.5699
24.9077
26.3118
27.7837
29.3267
30.944
32.6387
34.4138
36.2724
38.2178
40.2531
42.3818
44.6072
46.9326
49.3617
51.8976
54.544
57.304
60.1809
63.1778
66.2977
69.5434
72.9174
76.422
80.0593
83.8309
87.7383
91.7822
95.9634
100.282
104.737
109.328
114.054
118.912
123.901
129.016
134.255
139.612
145.084
150.664
156.347
162.126
167.994
173.943
179.965
186.05
192.191
198.377
204.597
210.842
217.1
223.361
229.611
235.84
242.036
248.186
254.278
260.299
266.238
272.083
277.821
283.44
288.93
294.278
299.474
304.505
309.362
314.034
318.511
322.784
326.844
330.683
334.293
337.667
340.799
343.682
346.311
348.683
350.792
352.637
354.216
355.525
356.566
357.338
357.84
358.068
358.032
357.733
357.174
356.36
355.296
353.985
352.432
350.644
348.628
346.391
343.941
341.286
338.435
335.396
332.179
328.792
325.246
321.551
317.715
313.75
309.666
305.472
301.178
296.796
292.333
287.802
283.211
278.57
273.888
269.174
264.438
259.689
254.935
250.188
245.456
240.751
236.081
231.454
226.878
222.361
217.913
213.547
209.277
205.119
201.097
197.232
193.554
190.015
186.438
7.28479
3.01487
2.23471
2.00995
1.95457
1.97382
2.03882
2.13541
2.25671
2.39909
2.56042
2.73943
2.93524
3.14729
3.37522
3.61879
3.87808
4.15364
4.44625
4.7571
5.08678
5.43587
5.80541
6.19653
6.61033
7.04786
7.51063
8.0004
8.51876
9.06732
9.6477
10.2616
10.9107
11.5968
12.3218
13.0879
13.8971
14.7516
15.6534
16.605
17.6086
18.6668
19.7821
20.9573
22.1954
23.4992
24.8717
26.3147
27.832
29.4286
31.1092
32.8771
34.7361
36.6899
38.7422
40.897
43.1584
45.5305
48.0175
50.6234
53.3525
56.2088
59.1963
62.3188
65.5802
68.984
72.5333
76.2313
80.0805
84.0833
88.2416
92.5568
97.0298
101.661
106.451
111.398
116.501
121.759
127.168
132.726
138.429
144.271
150.249
156.355
162.582
168.925
175.374
181.922
188.558
195.273
202.057
208.898
215.786
222.708
229.652
236.606
243.555
250.488
257.39
264.248
271.047
277.775
284.417
290.959
297.388
303.692
309.855
315.866
321.712
327.38
332.858
338.136
343.2
348.041
352.649
357.014
361.128
364.981
368.567
371.879
374.911
377.658
380.114
382.278
384.145
385.714
386.984
387.955
388.626
388.999
389.073
388.855
388.343
387.547
386.471
385.12
383.5
381.617
379.479
377.093
374.467
371.612
368.537
365.251
361.764
358.086
354.229
350.204
346.02
341.69
337.225
332.635
327.933
323.129
318.234
313.259
308.216
303.114
297.964
292.777
287.561
282.327
277.084
271.842
266.611
261.4
256.221
251.082
245.993
240.962
235.998
231.113
226.319
221.631
217.065
212.643
208.383
204.311
200.374
196.394
8.23077
3.29544
2.38927
2.12029
2.04444
2.05063
2.10632
2.19523
2.30944
2.44472
2.59864
2.76971
2.95697
3.16013
3.3792
3.61461
3.86627
4.13414
4.41856
4.71987
5.0386
5.37615
5.73375
6.11262
6.51401
6.93945
7.39071
7.86917
8.37642
8.91416
9.4842
10.0884
10.7288
11.4075
12.1268
12.8888
13.6962
14.5514
15.457
16.4159
17.431
18.5052
19.6415
20.8435
22.1151
23.459
24.8776
26.373
27.9536
29.6237
31.388
33.2524
35.2213
37.2989
39.4896
41.7982
44.2296
46.7887
49.4803
52.3095
55.2811
58.3999
61.6705
65.0974
68.6849
72.4369
76.3571
80.4488
84.7148
89.1574
93.7785
98.5795
103.561
108.723
114.065
119.585
125.283
131.154
137.195
143.402
149.771
156.294
162.965
169.778
176.723
183.792
190.975
198.261
205.641
213.102
220.631
228.217
235.846
243.504
251.178
258.852
266.512
274.142
281.729
289.255
296.706
304.067
311.322
318.457
325.455
332.304
338.988
345.492
351.805
357.912
363.799
369.456
374.869
380.028
384.922
389.541
393.875
397.918
401.659
405.094
408.216
411.02
413.501
415.657
417.485
418.983
420.152
420.99
421.501
421.684
421.546
421.083
420.299
419.207
417.812
416.121
414.137
411.871
409.33
406.523
403.462
400.155
396.613
392.848
388.871
384.694
380.328
375.786
371.08
366.222
361.224
356.1
350.86
345.518
340.086
334.574
328.996
323.362
317.684
311.972
306.237
300.488
294.736
288.991
283.262
277.561
271.896
266.279
260.718
255.224
249.805
244.475
239.245
234.13
229.147
224.314
219.65
215.176
210.836
206.456
9.08604
3.53619
2.51264
2.20167
2.10484
2.09789
2.14331
2.22355
2.32966
2.45707
2.60335
2.76727
2.9479
3.14429
3.35597
3.58251
3.82386
4.0808
4.35391
4.64393
4.95204
5.27915
5.62631
5.99475
6.38584
6.80111
7.24221
7.71084
8.2088
8.73801
9.30052
9.89854
10.5344
11.2106
11.9298
12.6947
13.5081
14.373
15.2928
16.2709
17.3112
18.4166
19.5906
20.8363
22.1555
23.5543
25.0392
26.6171
28.2928
30.0717
31.9592
33.9614
36.0845
38.3335
40.7139
43.2316
45.8921
48.7014
51.665
54.7886
58.0778
61.5379
65.174
68.9912
72.9938
77.1862
81.5719
86.1541
90.9356
95.9183
101.104
106.492
112.084
117.878
123.873
130.067
136.455
143.035
149.8
156.746
163.864
171.149
178.591
186.181
193.909
201.764
209.735
217.809
225.974
234.216
242.521
250.874
259.26
267.664
276.069
284.46
292.82
301.133
309.382
317.549
325.619
333.575
341.4
349.078
356.593
363.929
371.072
378.005
384.716
391.189
397.412
403.37
409.053
414.448
419.545
424.334
428.804
432.949
436.76
440.231
443.356
446.131
448.551
450.614
452.318
453.662
454.648
455.275
455.545
455.466
455.04
454.254
453.13
451.675
449.897
447.8
445.393
442.685
439.686
436.407
432.858
429.052
425
420.714
416.208
411.493
406.584
401.493
396.234
390.821
385.266
379.583
373.785
367.886
361.898
355.835
349.708
343.529
337.312
331.065
324.802
318.532
312.265
306.011
299.781
293.586
287.434
281.337
275.305
269.347
263.474
257.698
252.032
246.489
241.087
235.842
230.771
225.893
221.151
216.381
9.83973
3.736
2.60575
2.25602
2.13857
2.11888
2.15369
2.22524
2.32443
2.4456
2.58551
2.74211
2.91407
3.10116
3.30321
3.52024
3.75271
4.00088
4.26531
4.54674
4.84615
5.16461
5.50331
5.86362
6.24707
6.65534
7.09027
7.55381
8.04802
8.57513
9.13755
9.73788
10.379
11.064
11.7964
12.579
13.4151
14.3083
15.262
16.279
17.3615
18.5162
19.7488
21.0647
22.471
23.9727
25.5759
27.2875
29.1137
31.061
33.1363
35.3471
37.6992
40.1994
42.8548
45.6722
48.6583
51.8196
55.1622
58.6924
62.4159
66.3385
70.4652
74.801
79.3501
84.1164
89.1029
94.3121
99.7458
105.405
111.289
117.399
123.731
130.285
137.056
144.04
151.233
158.627
166.216
173.993
181.947
190.07
198.351
206.778
215.34
224.023
232.814
241.698
250.662
259.688
268.763
277.868
286.989
296.106
305.204
314.264
323.268
332.2
341.04
349.773
358.378
366.84
375.141
383.263
391.191
398.908
406.399
413.647
420.639
427.36
433.796
439.935
445.764
451.272
456.448
461.281
465.765
469.889
473.648
477.035
480.045
482.674
484.919
486.778
488.249
489.334
490.034
490.35
490.287
489.86
489.039
487.852
486.308
484.413
482.177
479.606
476.709
473.498
469.984
466.178
462.093
457.741
453.135
448.29
443.218
437.935
432.453
426.788
420.953
414.964
408.835
402.579
396.212
389.746
383.196
376.575
369.896
363.172
356.414
349.635
342.847
336.058
329.281
322.525
315.801
309.119
302.489
295.922
289.427
283.015
276.697
270.485
264.39
258.428
252.613
246.962
241.489
236.214
231.08
225.937
10.4836
3.89358
2.66981
2.28594
2.14979
2.11853
2.14502
2.20925
2.30033
2.41315
2.5448
2.69351
2.85836
3.03862
3.234
3.44452
3.6705
3.91241
4.17094
4.44692
4.7414
5.05558
5.39087
5.74884
6.13128
6.54026
6.97825
7.4476
7.95055
8.48978
9.0682
9.68886
10.3548
11.0686
11.832
12.6512
13.5309
14.4763
15.4922
16.5845
17.7595
19.0224
20.3795
21.8379
23.4052
25.0884
26.895
28.8324
30.9083
33.1307
35.5073
38.0466
40.756
43.6438
46.7183
49.988
53.4601
57.141
61.0367
65.1529
69.4951
74.0681
78.8764
83.9236
89.2127
94.7459
100.525
106.55
112.82
119.335
126.093
133.09
140.321
147.783
155.469
163.373
171.486
179.8
188.305
196.991
205.847
214.86
224.018
233.307
242.713
252.222
261.817
271.482
281.203
290.96
300.738
310.519
320.285
330.018
339.699
349.311
358.834
368.251
377.544
386.693
395.682
404.492
413.106
421.507
429.679
437.604
445.268
452.656
459.752
466.544
473.017
479.16
484.96
490.406
495.488
500.198
504.526
508.467
512.013
515.159
517.902
520.237
522.163
523.679
524.784
525.479
525.771
525.661
525.164
524.25
522.948
521.264
519.209
516.791
514.018
510.898
507.444
503.667
499.58
495.194
490.525
485.585
480.389
474.951
469.286
463.408
457.334
451.079
444.656
438.083
431.373
424.542
417.605
410.576
403.468
396.297
389.076
381.817
374.533
367.236
359.938
352.649
345.379
338.14
330.94
323.792
316.703
309.686
302.749
295.904
289.16
282.53
276.026
269.661
263.451
257.41
251.55
245.894
240.383
234.89
11.0636
4.02053
2.71178
2.29751
2.14512
2.10368
2.11996
2.17523
2.25908
2.36576
2.49199
2.63586
2.79624
2.97252
3.16447
3.37221
3.59615
3.83705
4.09615
4.37428
4.67266
4.99283
5.33654
5.70574
6.10253
6.52895
6.98664
7.47791
8.00707
8.578
9.19466
9.86127
10.5824
11.3632
12.2095
13.1264
14.1199
15.1964
16.3631
17.6276
18.9978
20.4816
22.0872
23.8234
25.6993
27.7237
29.9059
32.2548
34.7796
37.4891
40.3913
43.493
46.8043
50.3353
54.0959
58.0978
62.3477
66.8484
71.6031
76.6152
81.8877
87.4228
93.222
99.2858
105.614
112.205
119.057
126.166
133.529
141.141
148.995
157.085
165.403
173.941
182.689
191.637
200.776
210.092
219.575
229.21
238.985
248.886
258.898
269.005
279.193
289.444
299.744
310.074
320.417
330.758
341.076
351.356
361.579
371.727
381.782
391.725
401.54
411.207
420.709
430.029
439.149
448.052
456.721
465.141
473.295
481.167
488.743
496.009
502.951
509.556
515.811
521.706
527.229
532.37
537.121
541.473
545.418
548.953
552.07
554.765
557.038
558.884
560.302
561.294
561.859
561.996
561.736
561.048
559.939
558.426
556.515
554.215
551.537
548.491
545.083
541.327
537.233
532.815
528.086
523.061
517.753
512.176
506.347
500.28
493.991
487.495
480.808
473.946
466.925
459.761
452.468
445.063
437.561
429.975
422.322
414.615
406.867
399.091
391.3
383.507
375.722
367.956
360.219
352.522
344.874
337.286
329.766
322.326
314.975
307.723
300.58
293.559
286.67
279.926
273.342
266.933
260.708
254.69
248.824
243.01
11.5981
4.12246
2.73528
2.29461
2.12844
2.07742
2.08742
2.13836
2.21921
2.32413
2.44992
2.59482
2.75757
2.93767
3.13507
3.35006
3.58321
3.83513
4.10606
4.39798
4.71316
5.05391
5.42272
5.8224
6.25609
6.72737
7.24063
7.80037
8.41092
9.07755
9.80611
10.603
11.4753
12.4307
13.4772
14.6232
15.8773
17.249
18.7484
20.3859
22.1724
24.1185
26.2354
28.5341
31.0255
33.7202
36.6286
39.7606
43.126
46.7332
50.59
54.7032
59.081
63.7309
68.6606
73.8786
79.3853
85.178
91.2545
97.6125
104.249
111.161
118.342
125.789
133.495
141.452
149.654
158.091
166.755
175.636
184.725
194.01
203.481
213.126
222.933
232.891
242.985
253.204
263.534
273.96
284.47
295.048
305.679
316.349
327.041
337.742
348.434
359.102
369.73
380.301
390.8
401.209
411.512
421.692
431.734
441.619
451.333
460.859
470.18
479.28
488.144
496.757
505.103
513.167
520.935
528.392
535.526
542.322
548.77
554.859
560.576
565.911
570.855
575.399
579.537
583.261
586.564
589.443
591.895
593.913
595.501
596.654
597.372
597.66
597.517
596.968
595.966
594.555
592.732
590.504
587.879
584.869
581.485
577.736
573.63
569.18
564.399
559.302
553.902
548.214
542.252
536.032
529.569
522.878
515.976
508.878
501.601
494.16
486.572
478.853
471.017
463.081
455.059
446.966
438.817
430.626
422.406
414.169
405.929
397.696
389.483
381.298
373.153
365.056
357.018
349.047
341.153
333.345
325.634
318.028
310.538
303.174
295.947
288.871
281.958
275.221
268.671
262.331
256.146
250.056
12.0651
4.19415
2.74311
2.28426
2.1099
2.0564
2.06681
2.12041
2.20585
2.31708
2.45052
2.60354
2.77604
2.96808
3.18011
3.41302
3.66811
3.94717
4.25284
4.58745
4.95407
5.35633
5.79837
6.28492
6.82139
7.414
8.06974
8.796
9.60051
10.492
11.4802
12.5759
13.7906
15.1363
16.6256
18.2716
20.0875
22.0874
24.2856
26.696
29.3319
32.2062
35.3316
38.72
42.3821
46.3264
50.5603
55.0908
59.9242
65.064
70.511
76.2661
82.3326
88.7105
95.4029
102.402
109.687
117.25
125.08
133.168
141.502
150.071
158.863
167.867
177.07
186.461
196.028
205.758
215.641
225.663
235.813
246.08
256.452
266.917
277.464
288.081
298.755
309.477
320.232
331.01
341.798
352.584