/*--------------------------------*- C++ -*----------------------------------*\
| =========                 |                                                 |
| \\      /  F ield         | OpenFOAM: The Open Source CFD Toolbox           |
|  \\    /   O peration     | Version:  2406                                  |
|   \\  /    A nd           | Website:  www.openfoam.com                      |
|    \\/     M anipulation  |                                                 |
\*---------------------------------------------------------------------------*/
FoamFile
{
    version     2.0;
    format      ascii;
    arch        "LSB;label=32;scalar=64";
    class       volScalarField;
    location    "282";
    object      k;
}
// * * * * * * * * * * * * * * * * * * * * * * * * * * * * * * * * * * * * * //

dimensions      [0 2 -2 0 0 0 0];

internalField   nonuniform List<scalar> 
12225
(
0.571498
0.987649
1.28116
1.45558
1.54167
1.57742
1.57633
1.56599
1.54776
1.52389
1.5005
1.47801
1.45794
1.43899
1.42337
1.40763
1.39698
1.38226
0.438453
0.496876
0.521953
0.534905
0.542882
0.547409
0.55024
0.552223
0.555993
0.55948
0.565525
0.571179
0.579497
0.586962
0.596702
0.605396
0.61518
0.625774
0.387571
0.417489
0.424189
0.421528
0.41504
0.40497
0.393799
0.382812
0.371928
0.362428
0.353239
0.346112
0.338976
0.334342
0.329113
0.326703
0.323064
0.322354
0.376181
0.384816
0.388124
0.387415
0.385434
0.381138
0.375683
0.369562
0.363115
0.356561
0.350107
0.3438
0.33782
0.332058
0.326782
0.321672
0.317171
0.312715
0.374178
0.375374
0.376396
0.375929
0.374798
0.372507
0.369615
0.366136
0.362484
0.358469
0.354556
0.350368
0.346521
0.342381
0.338793
0.334817
0.331603
0.327845
0.373737
0.372544
0.371997
0.371082
0.369917
0.368266
0.366339
0.364031
0.36164
0.358966
0.356373
0.353535
0.350915
0.348046
0.34552
0.3427
0.340346
0.337625
0.373769
0.371726
0.370231
0.368831
0.367465
0.36594
0.364344
0.362551
0.360733
0.358749
0.356812
0.35473
0.352769
0.350664
0.348747
0.346671
0.34485
0.342829
0.373818
0.371563
0.369621
0.36786
0.36625
0.364663
0.363121
0.361521
0.359944
0.358297
0.356694
0.355025
0.353428
0.351768
0.350212
0.348587
0.347101
0.345522
0.373833
0.371554
0.369457
0.36751
0.365722
0.364025
0.362428
0.360861
0.359354
0.357851
0.3564
0.354942
0.35354
0.352129
0.350784
0.349424
0.348147
0.346841
0.373832
0.37156
0.369425
0.36741
0.365529
0.363752
0.362086
0.360492
0.35898
0.357515
0.356115
0.354747
0.353437
0.35215
0.350918
0.349705
0.348549
0.347404
0.37383
0.371561
0.369417
0.367384
0.365468
0.363652
0.361942
0.360316
0.358778
0.357309
0.355911
0.354569
0.353288
0.352053
0.350871
0.349728
0.348634
0.347573
0.373828
0.371559
0.369412
0.367375
0.365448
0.363619
0.361889
0.360247
0.35869
0.357209
0.355802
0.354459
0.35318
0.351957
0.350789
0.349669
0.348598
0.34757
0.373827
0.371557
0.369407
0.367369
0.365437
0.363603
0.361865
0.360213
0.358646
0.357156
0.355739
0.35439
0.353107
0.351883
0.350716
0.349601
0.348536
0.34752
0.373827
0.371555
0.369403
0.367362
0.365428
0.363591
0.361848
0.360192
0.358619
0.357123
0.3557
0.354345
0.353056
0.351828
0.350656
0.34954
0.348474
0.347458
0.373826
0.371553
0.369399
0.367357
0.36542
0.363581
0.361835
0.360176
0.358599
0.3571
0.355673
0.354315
0.353021
0.351788
0.350613
0.349493
0.348424
0.347405
0.373826
0.371552
0.369396
0.367352
0.365413
0.363572
0.361824
0.360163
0.358584
0.357081
0.355652
0.35429
0.352994
0.351758
0.35058
0.349457
0.348385
0.347363
0.373825
0.371551
0.369394
0.367349
0.365408
0.363566
0.361816
0.360152
0.358571
0.357067
0.355635
0.354271
0.352972
0.351735
0.350555
0.349429
0.348355
0.347331
0.373825
0.371551
0.369393
0.367347
0.365405
0.363561
0.36181
0.360145
0.358562
0.357056
0.355623
0.354258
0.352957
0.351718
0.350536
0.349409
0.348334
0.347308
0.373825
0.371551
0.369393
0.367347
0.365404
0.36356
0.361808
0.360143
0.358559
0.357052
0.355618
0.354252
0.35295
0.35171
0.350527
0.349399
0.348323
0.347296
0.373825
0.371551
0.369394
0.367348
0.365406
0.363562
0.361811
0.360146
0.358562
0.357056
0.355622
0.354256
0.352955
0.351715
0.350532
0.349405
0.348329
0.347302
0.373826
0.371552
0.369396
0.367351
0.36541
0.363567
0.361816
0.360152
0.35857
0.357065
0.355633
0.354268
0.352969
0.35173
0.35055
0.349423
0.348349
0.347323
0.373826
0.371553
0.369398
0.367355
0.365416
0.363575
0.361828
0.360168
0.358591
0.357091
0.355664
0.354306
0.353012
0.351779
0.350602
0.34948
0.348408
0.347383
0.373826
0.371555
0.369401
0.367363
0.365432
0.363605
0.361875
0.360237
0.358681
0.357203
0.355794
0.354451
0.353167
0.351939
0.350762
0.349635
0.348552
0.347513
0.373827
0.371555
0.369413
0.367418
0.365544
0.363793
0.362138
0.360572
0.359071
0.357632
0.35624
0.354896
0.353589
0.352323
0.35109
0.349894
0.348728
0.347601
0.373819
0.371564
0.369582
0.367846
0.366223
0.364712
0.363219
0.361753
0.360266
0.358787
0.357288
0.3558
0.354306
0.352833
0.351361
0.349924
0.348495
0.34711
0.373767
0.371946
0.370916
0.369978
0.368912
0.367767
0.366326
0.364737
0.362933
0.361062
0.35906
0.357054
0.354971
0.352925
0.350845
0.348825
0.346792
0.344839
0.374093
0.3752
0.37726
0.377562
0.377091
0.375807
0.373488
0.370864
0.367802
0.364686
0.361328
0.358027
0.354602
0.351291
0.347923
0.3447
0.341473
0.338414
0.377677
0.394076
0.402944
0.402354
0.400308
0.396046
0.390665
0.385166
0.379132
0.373302
0.367221
0.361475
0.355719
0.350305
0.345128
0.340198
0.335726
0.331324
0.405777
0.438976
0.451187
0.455808
0.459109
0.462259
0.464969
0.467226
0.46922
0.47084
0.472486
0.473922
0.47554
0.477066
0.479202
0.480825
0.483663
0.485376
0.479011
0.684926
0.865145
0.990809
1.09437
1.17584
1.23938
1.28342
1.31504
1.33208
1.34321
1.34355
1.34143
1.33632
1.32786
1.31776
1.30684
1.2954
0.00229304
0.00381795
0.00550806
0.00710074
0.00849384
0.00968494
0.0107014
0.0115728
0.0123274
0.013028
0.0137239
0.0144218
0.0151418
0.0159006
0.0167067
0.0175604
0.0184582
0.0194024
0.0204184
0.0215882
0.0230474
0.0248052
0.026794
0.0289932
0.031415
0.0340829
0.0370225
0.0402552
0.0437939
0.0476351
0.0517544
0.0561406
0.0607754
0.0656312
0.0706888
0.075927
0.0813307
0.0868851
0.092579
0.0984045
0.104357
0.110437
0.11665
0.123008
0.129532
0.136255
0.143227
0.150521
0.157976
0.165575
0.173328
0.181236
0.1893
0.197524
0.205908
0.214456
0.223168
0.232046
0.24109
0.250301
0.259679
0.269223
0.278933
0.288807
0.298843
0.309039
0.319392
0.329899
0.340555
0.351356
0.362297
0.373372
0.384576
0.395901
0.407341
0.418888
0.430534
0.44227
0.454087
0.465977
0.477927
0.48993
0.501973
0.514046
0.526136
0.538233
0.550323
0.562395
0.574435
0.586429
0.598363
0.610221
0.621987
0.633644
0.645171
0.656548
0.667752
0.678759
0.689544
0.70009
0.710395
0.720501
0.730443
0.740119
0.749569
0.758767
0.767711
0.776386
0.784781
0.792886
0.80069
0.808182
0.815353
0.822193
0.828692
0.834844
0.840639
0.846071
0.851131
0.855816
0.860117
0.86403
0.86755
0.870673
0.873396
0.875718
0.877635
0.879149
0.880258
0.88096
0.881248
0.881152
0.880733
0.879822
0.878482
0.87671
0.874636
0.872241
0.869392
0.866203
0.862644
0.858734
0.85448
0.849891
0.844982
0.839756
0.834225
0.828399
0.82229
0.815909
0.809269
0.802382
0.795261
0.787919
0.780369
0.772625
0.7647
0.756608
0.748362
0.739978
0.73147
0.722857
0.714162
0.70543
0.69683
0.689885
0.685726
0.681939
0.678148
0.67432
0.670455
0.666553
0.662611
0.658615
0.65453
0.65028
0.645707
0.640344
0.633302
0.608171
0.00566854
0.00882354
0.0125259
0.0155318
0.0180674
0.0203082
0.0223665
0.0243209
0.0262311
0.0281434
0.0301187
0.0322266
0.0345101
0.0369898
0.0396686
0.0425397
0.0455947
0.0488305
0.0522547
0.0558828
0.0597282
0.0638047
0.0681272
0.0727094
0.0775709
0.0827365
0.0882318
0.0940798
0.100297
0.106887
0.113838
0.121149
0.128812
0.136823
0.145182
0.153864
0.162862
0.172169
0.181781
0.191695
0.201909
0.21242
0.223228
0.234333
0.245736
0.257436
0.269434
0.281725
0.294296
0.307155
0.320305
0.333753
0.347503
0.361559
0.375926
0.390608
0.40561
0.420935
0.436587
0.452568
0.468882
0.48553
0.502514
0.519833
0.537488
0.555479
0.573803
0.592458
0.611441
0.630747
0.650372
0.670309
0.690553
0.711094
0.731924
0.753033
0.77441
0.796045
0.817923
0.840032
0.862357
0.884883
0.907592
0.930468
0.953493
0.976648
0.999912
1.02326
1.04668
1.07015
1.09364
1.11712
1.14057
1.16396
1.18727
1.21046
1.23349
1.25633
1.27893
1.30124
1.32319
1.34472
1.36581
1.3866
1.40707
1.42719
1.44694
1.4663
1.48525
1.50376
1.52181
1.53937
1.55643
1.57297
1.58895
1.60438
1.61921
1.63344
1.64705
1.66003
1.67235
1.684
1.69497
1.70524
1.71481
1.72367
1.7318
1.7392
1.74587
1.75179
1.75698
1.76143
1.76515
1.76811
1.77023
1.77147
1.77205
1.7721
1.77127
1.76973
1.76747
1.76449
1.7608
1.75643
1.75138
1.74567
1.73931
1.73232
1.72472
1.71653
1.70776
1.69843
1.68858
1.67821
1.66736
1.65604
1.64428
1.6321
1.61953
1.60659
1.59332
1.57973
1.56586
1.55175
1.53748
1.5234
1.50968
1.49593
1.48207
1.46811
1.45408
1.43999
1.42587
1.4117
1.39748
1.38317
1.36858
1.35363
1.33685
1.30126
0.00950024
0.014416
0.0194405
0.0233618
0.0266823
0.0296819
0.0325225
0.0353145
0.0381433
0.0410805
0.044187
0.0475114
0.0510862
0.054927
0.0590361
0.0634073
0.0680315
0.0729023
0.0780179
0.0833838
0.0890124
0.0949164
0.101108
0.107604
0.114422
0.121585
0.129113
0.137023
0.14533
0.154047
0.163194
0.172777
0.182803
0.19327
0.204176
0.215508
0.227258
0.239421
0.251991
0.264962
0.278327
0.292082
0.30622
0.320737
0.335629
0.350891
0.366521
0.382515
0.398871
0.415594
0.432687
0.450154
0.468
0.486229
0.504844
0.523849
0.543249
0.563046
0.583242
0.603842
0.624845
0.646253
0.668067
0.690285
0.712908
0.735931
0.759354
0.78317
0.807377
0.831967
0.856934
0.88227
0.907966
0.934011
0.960396
0.987106
1.01413
1.04145
1.06905
1.09692
1.12504
1.15339
1.18194
1.21068
1.23959
1.26864
1.2978
1.32706
1.35638
1.38574
1.41511
1.44446
1.47375
1.50296
1.53206
1.561
1.58976
1.61829
1.64657
1.67456
1.70223
1.72955
1.75652
1.78311
1.80929
1.83503
1.86029
1.88506
1.90929
1.93296
1.95604
1.97849
2.00029
2.02142
2.04184
2.06153
2.08047
2.09862
2.11598
2.13251
2.1482
2.16303
2.17698
2.19003
2.20218
2.21341
2.2237
2.23305
2.24146
2.24891
2.25541
2.26095
2.26554
2.26914
2.27175
2.27323
2.27382
2.27362
2.27241
2.27025
2.26716
2.26316
2.25825
2.25246
2.2458
2.23829
2.22996
2.22082
2.2109
2.20021
2.1888
2.17667
2.16387
2.15042
2.13634
2.12166
2.10643
2.09066
2.0744
2.05767
2.0405
2.02294
2.00502
1.9868
1.96835
1.94988
1.9315
1.91305
1.89447
1.87579
1.85703
1.83823
1.81941
1.80061
1.78184
1.76312
1.74438
1.72566
1.70553
1.67407
0.0128223
0.0202856
0.0265832
0.0313473
0.0353672
0.0390206
0.0425156
0.0459889
0.0495424
0.0532562
0.0571932
0.0613987
0.0659005
0.0707103
0.0758269
0.0812417
0.0869436
0.0929242
0.09918
0.105714
0.112534
0.119653
0.127089
0.134866
0.14301
0.151549
0.16051
0.169918
0.179793
0.190154
0.201011
0.212369
0.224229
0.236584
0.249425
0.262749
0.276551
0.290824
0.305559
0.320748
0.336384
0.352459
0.368967
0.385903
0.403263
0.421044
0.439244
0.457861
0.476897
0.496355
0.516239
0.536554
0.557304
0.578494
0.600127
0.62221
0.644745
0.667737
0.691187
0.7151
0.739478
0.76432
0.78963
0.815405
0.841645
0.868348
0.89551
0.923129
0.951198
0.979711
1.00866
1.03804
1.06784
1.09804
1.12864
1.15962
1.19097
1.22266
1.25469
1.28703
1.31966
1.35256
1.38571
1.41908
1.45265
1.48639
1.52026
1.55425
1.58832
1.62245
1.65658
1.6907
1.72477
1.75874
1.7926
1.82629
1.85979
1.89305
1.92604
1.95874
1.99109
2.02307
2.05465
2.08577
2.11642
2.14655
2.17612
2.2051
2.23344
2.26111
2.28808
2.31431
2.33977
2.36442
2.38824
2.41118
2.43323
2.45435
2.47452
2.49372
2.51192
2.52909
2.54522
2.56029
2.57428
2.58718
2.59898
2.60966
2.61922
2.62766
2.63496
2.64113
2.64617
2.65005
2.65276
2.65418
2.65459
2.65395
2.65217
2.64927
2.64529
2.64023
2.63411
2.62696
2.61879
2.60963
2.59951
2.58844
2.57646
2.5636
2.54988
2.53535
2.52002
2.50393
2.48712
2.46962
2.45148
2.43271
2.41337
2.3935
2.37312
2.35229
2.33105
2.30946
2.2876
2.26561
2.24358
2.22143
2.19916
2.17678
2.15434
2.13188
2.10945
2.0871
2.06488
2.04287
2.0211
1.99968
1.97739
1.94806
0.0154518
0.0261041
0.033733
0.0393765
0.0441097
0.0483992
0.0524984
0.0565695
0.0607293
0.0650658
0.0696448
0.0745114
0.0796922
0.0851973
0.0910252
0.0971672
0.103614
0.110358
0.117399
0.124744
0.132406
0.140405
0.148766
0.157518
0.166691
0.176314
0.186413
0.197012
0.208128
0.219773
0.231954
0.244674
0.257929
0.271718
0.286033
0.300872
0.316225
0.332087
0.348448
0.365303
0.382644
0.400466
0.418763
0.437532
0.45677
0.476475
0.496648
0.517291
0.538405
0.559996
0.582069
0.604627
0.627676
0.651223
0.675271
0.699827
0.724896
0.750481
0.776588
0.803219
0.830378
0.858068
0.886288
0.915041
0.944326
0.97414
1.00448
1.03535
1.06674
1.09864
1.13104
1.16394
1.19733
1.2312
1.26552
1.30029
1.33549
1.37111
1.40711
1.44349
1.48021
1.51725
1.55459
1.5922
1.63005
1.66811
1.70634
1.74472
1.7832
1.82175
1.86034
1.89892
1.93746
1.97591
2.01424
2.0524
2.09035
2.12806
2.16547
2.20256
2.23926
2.27555
2.31137
2.34669
2.38145
2.41561
2.44914
2.48197
2.51409
2.54543
2.57596
2.60564
2.63442
2.66228
2.68918
2.71507
2.73994
2.76373
2.78643
2.80801
2.82844
2.84769
2.86574
2.88258
2.89818
2.91252
2.9256
2.9374
2.94792
2.95714
2.96507
2.97171
2.97704
2.98107
2.98374
2.98498
2.9851
2.98395
2.98152
2.97783
2.97291
2.96676
2.95942
2.95091
2.94126
2.93048
2.91862
2.90569
2.89174
2.8768
2.86089
2.84407
2.82635
2.80779
2.78842
2.76829
2.74742
2.72588
2.70369
2.6809
2.65756
2.63372
2.60943
2.58475
2.55975
2.53456
2.50922
2.48375
2.45815
2.43245
2.4067
2.38096
2.35529
2.32977
2.3045
2.27959
2.25515
2.23132
2.20707
2.17808
0.0174791
0.0315981
0.040628
0.0471803
0.0526312
0.0575372
0.062195
0.0667906
0.0714546
0.0762832
0.0813467
0.0866936
0.0923528
0.0983377
0.104651
0.111288
0.118247
0.125525
0.133128
0.141068
0.149365
0.158042
0.167127
0.17665
0.186639
0.19712
0.208116
0.219645
0.231721
0.244353
0.257545
0.271299
0.285614
0.300487
0.315914
0.33189
0.34841
0.365468
0.38306
0.40118
0.419824
0.438988
0.458671
0.478872
0.499589
0.520824
0.54258
0.564858
0.587664
0.611002
0.634878
0.659298
0.684268
0.709796
0.735888
0.762551
0.78979
0.817612
0.846022
0.875026
0.904627
0.934829
0.965635
0.997047
1.02907
1.06169
1.09492
1.12875
1.16318
1.1982
1.23381
1.26999
1.30674
1.34403
1.38187
1.42023
1.45909
1.49844
1.53825
1.5785
1.61916
1.6602
1.7016
1.74332
1.78534
1.8276
1.87009
1.91276
1.95556
1.99847
2.04143
2.08441
2.12735
2.17021
2.21295
2.25552
2.29787
2.33994
2.3817
2.42309
2.46406
2.50455
2.54452
2.58392
2.62269
2.66078
2.69815
2.73475
2.77052
2.80542
2.8394
2.87242
2.90443
2.93538
2.96525
2.99398
3.02154
3.04789
3.073
3.09684
3.11939
3.1406
3.16046
3.17894
3.19603
3.2117
3.22595
3.23876
3.25012
3.26002
3.26847
3.27547
3.28101
3.28508
3.28762
3.28864
3.28836
3.28664
3.2835
3.27896
3.27304
3.26577
3.25717
3.24727
3.2361
3.22369
3.21008
3.1953
3.17939
3.16238
3.14431
3.12523
3.10518
3.0842
3.06233
3.03963
3.01613
2.99188
2.96694
2.94134
2.91515
2.88841
2.86118
2.83353
2.80553
2.77727
2.74882
2.7202
2.69144
2.66259
2.63371
2.60487
2.57615
2.54765
2.51949
2.49184
2.46485
2.43867
2.41237
2.38256
0.0190099
0.0366598
0.0470417
0.0544814
0.0606259
0.0661128
0.0712773
0.0763272
0.0814059
0.0866185
0.0920419
0.0977303
0.103719
0.110028
0.116668
0.123643
0.130957
0.138616
0.146631
0.155019
0.163801
0.173003
0.18265
0.19277
0.203388
0.214525
0.226201
0.238429
0.251222
0.264586
0.278526
0.293043
0.308138
0.32381
0.340057
0.356876
0.374265
0.392221
0.410743
0.429828
0.449475
0.469684
0.490455
0.51179
0.533691
0.556162
0.579206
0.602828
0.627035
0.651832
0.677228
0.70323
0.729846
0.757084
0.784953
0.813461
0.842616
0.872426
0.902897
0.934037
0.965852
0.998347
1.03153
1.0654
1.09995
1.1352
1.17114
1.20777
1.24509
1.28309
1.32176
1.36109
1.40108
1.44171
1.48296
1.52482
1.56726
1.61028
1.65383
1.6979
1.74245
1.78746
1.83289
1.8787
1.92486
1.97133
2.01807
2.06503
2.11216
2.15943
2.20677
2.25415
2.3015
2.34879
2.39594
2.44292
2.48966
2.5361
2.58219
2.62787
2.67309
2.71777
2.76187
2.80532
2.84808
2.89008
2.93126
2.97158
3.01097
3.04939
3.08678
3.12308
3.15825
3.19225
3.22502
3.25652
3.28671
3.31555
3.34301
3.36904
3.39362
3.41671
3.43829
3.45834
3.47684
3.49375
3.50908
3.52281
3.53493
3.54543
3.55432
3.56159
3.56724
3.57128
3.57361
3.57436
3.57359
3.57123
3.56731
3.56186
3.55489
3.54644
3.53653
3.5252
3.51249
3.49842
3.48304
3.46639
3.4485
3.42942
3.4092
3.38787
3.3655
3.34212
3.31778
3.29254
3.26644
3.23955
3.2119
3.18356
3.15458
3.12501
3.09493
3.06438
3.03345
3.00221
2.97075
2.93909
2.9073
2.87541
2.84351
2.81168
2.78002
2.74864
2.71769
2.68737
2.65785
2.62928
2.60079
2.56939
0.0202655
0.0411703
0.0527931
0.0610546
0.067836
0.0738475
0.0794584
0.084895
0.0903128
0.0958253
0.101517
0.107449
0.113665
0.120193
0.127054
0.134259
0.141821
0.149752
0.158068
0.166787
0.175931
0.185523
0.195588
0.206147
0.217224
0.228835
0.240998
0.253723
0.267022
0.280901
0.295365
0.310418
0.326062
0.342298
0.359128
0.376552
0.39457
0.413184
0.432395
0.452204
0.472614
0.493626
0.515246
0.537476
0.560322
0.583791
0.607888
0.632621
0.657998
0.684028
0.710719
0.738083
0.766129
0.794868
0.82431
0.854465
0.885344
0.916957
0.949312
0.98242
1.01629
1.05092
1.08633
1.12252
1.15949
1.19725
1.23579
1.27512
1.31523
1.35612
1.39779
1.44021
1.48338
1.52729
1.57192
1.61725
1.66326
1.70992
1.75721
1.80509
1.85354
1.90252
1.95199
2.00191
2.05224
2.10293
2.15394
2.20521
2.2567
2.30835
2.3601
2.41191
2.4637
2.51542
2.56701
2.6184
2.66954
2.72035
2.77078
2.82075
2.87019
2.91906
2.96727
3.01476
3.06147
3.10734
3.15231
3.19631
3.23928
3.28117
3.32191
3.36144
3.39972
3.43669
3.4723
3.5065
3.53925
3.5705
3.60022
3.62836
3.65489
3.67978
3.703
3.72452
3.74433
3.7624
3.77872
3.79328
3.80606
3.81707
3.8263
3.83376
3.83944
3.84336
3.84543
3.84581
3.84447
3.84141
3.83665
3.83022
3.82214
3.81246
3.8012
3.7884
3.7741
3.75835
3.74117
3.72262
3.70275
3.6816
3.65922
3.63566
3.61097
3.58522
3.55844
3.5307
3.50205
3.47255
3.44225
3.41122
3.37951
3.34718
3.3143
3.28093
3.24714
3.21302
3.17863
3.14404
3.1093
3.07448
3.03966
3.00494
2.97042
2.93624
2.90257
2.86962
2.83756
2.80654
2.77575
2.7426
0.0227573
0.0452853
0.0578603
0.0667885
0.0740986
0.0805506
0.0865356
0.0922926
0.0979851
0.103733
0.109628
0.115737
0.122113
0.128792
0.135802
0.143164
0.150896
0.159015
0.16754
0.17649
0.185885
0.195747
0.206096
0.216953
0.228335
0.240259
0.252739
0.265786
0.27941
0.293619
0.308419
0.323816
0.339816
0.356421
0.373638
0.391469
0.40992
0.428993
0.448695
0.469029
0.490002
0.51162
0.533889
0.556817
0.580412
0.604684
0.629642
0.655296
0.681656
0.708734
0.736543
0.765094
0.7944
0.824476
0.855332
0.886984
0.919443
0.952722
0.986832
1.02179
1.05759
1.09426
1.1318
1.17023
1.20953
1.24972
1.29081
1.33278
1.37564
1.41939
1.46401
1.5095
1.55585
1.60303
1.65103
1.69983
1.74941
1.79973
1.85077
1.90249
1.95485
2.00782
2.06136
2.11541
2.16993
2.22486
2.28016
2.33577
2.39163
2.44767
2.50384
2.56007
2.6163
2.67245
2.72846
2.78426
2.83977
2.89492
2.94965
3.00386
3.0575
3.11049
3.16276
3.21423
3.26483
3.3145
3.36317
3.41077
3.45724
3.5025
3.54649
3.58916
3.63044
3.67028
3.70862
3.74541
3.7806
3.81415
3.846
3.87613
3.9045
3.93106
3.9558
3.97868
3.99968
4.01879
4.03598
4.05125
4.06459
4.076
4.08547
4.09301
4.09863
4.10233
4.10407
4.10398
4.102
4.09816
4.09249
4.08502
4.07579
4.06482
4.05217
4.03786
4.02195
4.00448
3.9855
3.96505
3.94319
3.91998
3.89545
3.86968
3.84272
3.81462
3.78544
3.75525
3.72411
3.69206
3.65919
3.62554
3.59117
3.55616
3.52057
3.48446
3.44791
3.411
3.3738
3.33638
3.29881
3.26116
3.22352
3.186
3.14872
3.11182
3.0755
3.03995
3.00536
2.97187
2.93869
2.90372
0.0256686
0.0488288
0.0621198
0.0715694
0.0792988
0.0861045
0.0923911
0.0984059
0.104318
0.110251
0.116301
0.122542
0.129032
0.135814
0.142923
0.150386
0.158227
0.166464
0.175119
0.184211
0.193758
0.20378
0.214296
0.225322
0.236875
0.248971
0.261623
0.274841
0.288637
0.30302
0.317999
0.333582
0.349777
0.366591
0.384032
0.402108
0.420827
0.440195
0.460223
0.480918
0.50229
0.52435
0.547108
0.570574
0.59476
0.619679
0.645343
0.671766
0.698963
0.726947
0.755734
0.78534
0.815781
0.847073
0.879232
0.912274
0.946214
0.981068
1.01685
1.05358
1.09126
1.1299
1.16953
1.21014
1.25174
1.29434
1.33795
1.38256
1.42816
1.47476
1.52235
1.57092
1.62045
1.67092
1.72232
1.77461
1.82778
1.88178
1.93659
1.99217
2.04848
2.10546
2.16307
2.22126
2.27998
2.33916
2.39875
2.45868
2.51889
2.5793
2.63985
2.70047
2.76108
2.8216
2.88197
2.94209
3.00189
3.06129
3.12021
3.17857
3.23629
3.29328
3.34947
3.40479
3.45914
3.51247
3.56469
3.61573
3.66553
3.714
3.76108
3.80671
3.85082
3.89336
3.93425
3.97345
4.01091
4.04657
4.0804
4.11234
4.14237
4.17044
4.19653
4.2206
4.24264
4.26263
4.28055
4.29639
4.31014
4.32181
4.33139
4.33889
4.34433
4.3477
4.34903
4.34836
4.34566
4.34097
4.33432
4.32575
4.3153
4.30301
4.28892
4.27309
4.25555
4.23636
4.21557
4.19323
4.16941
4.14416
4.11753
4.08959
4.0604
4.03002
3.99852
3.96596
3.9324
3.8979
3.86254
3.82637
3.78946
3.75188
3.71369
3.67496
3.63577
3.5962
3.55632
3.5162
3.47592
3.43558
3.39525
3.35505
3.31513
3.27562
3.23671
3.19863
3.16154
3.12557
3.08999
3.05298
0.0283697
0.051665
0.0654868
0.0753343
0.0833852
0.0904636
0.0969835
0.103198
0.10928
0.115355
0.121523
0.12786
0.13443
0.141279
0.148448
0.155968
0.163864
0.172159
0.180873
0.190027
0.199639
0.209727
0.220307
0.231397
0.24301
0.255161
0.267863
0.281129
0.29497
0.309399
0.324426
0.340062
0.35632
0.373209
0.390741
0.408928
0.427781
0.447312
0.467535
0.488462
0.510106
0.532481
0.555601
0.579482
0.604139
0.629588
0.655848
0.682935
0.710866
0.73966
0.769335
0.799912
0.831411
0.863851
0.897251
0.93163
0.967007
1.0034
1.04083
1.0793
1.11884
1.15946
1.20117
1.24398
1.2879
1.33294
1.37909
1.42636
1.47475
1.52425
1.57485
1.62653
1.67929
1.73309
1.78792
1.84375
1.90054
1.95826
2.01687
2.07632
2.13657
2.19756
2.25925
2.32156
2.38444
2.44783
2.51165
2.57584
2.64032
2.70501
2.76985
2.83474
2.8996
2.96436
3.02892
3.09321
3.15713
3.22059
3.28352
3.34581
3.40739
3.46817
3.52806
3.58698
3.64485
3.70159
3.75711
3.81134
3.86421
3.91563
3.96554
4.01387
4.06055
4.10551
4.1487
4.19006
4.22952
4.26705
4.3026
4.33612
4.36757
4.39691
4.42412
4.44917
4.47204
4.4927
4.51115
4.52738
4.54137
4.55313
4.56267
4.56999
4.57511
4.57804
4.57882
4.57749
4.57398
4.56834
4.56064
4.55092
4.53921
4.52556
4.51002
4.49265
4.47348
4.45258
4.43001
4.40582
4.38008
4.35284
4.32418
4.29415
4.26282
4.23026
4.19653
4.16171
4.12585
4.08903
4.05131
4.01277
3.97346
3.93345
3.89282
3.85163
3.80996
3.76788
3.72548
3.68284
3.64003
3.59715
3.55429
3.51158
3.46914
3.42715
3.38578
3.34525
3.30573
3.26733
3.22938
3.1903
0.0307822
0.0537917
0.0679676
0.0780962
0.0863756
0.0936489
0.100337
0.106695
0.112899
0.119077
0.125328
0.13173
0.138349
0.145235
0.152428
0.159964
0.16787
0.176172
0.18489
0.194043
0.203649
0.213724
0.224284
0.235345
0.246921
0.259027
0.271677
0.284884
0.298665
0.313032
0.328001
0.343586
0.359801
0.376662
0.394184
0.412383
0.431274
0.450875
0.471202
0.492272
0.514104
0.536714
0.560121
0.584344
0.609402
0.635319
0.662115
0.689812
0.718432
0.747998
0.778534
0.810062
0.842608
0.876194
0.910842
0.946576
0.983416
1.02138
1.0605
1.10077
1.14223
1.18489
1.22875
1.27384
1.32016
1.36771
1.4165
1.46652
1.51778
1.57026
1.62395
1.67883
1.73489
1.79209
1.85041
1.90982
1.97027
2.03172
2.09414
2.15746
2.22163
2.28659
2.35229
2.41865
2.48561
2.55309
2.62102
2.68932
2.7579
2.8267
2.89561
2.96455
3.03344
3.10217
3.17067
3.23884
3.30658
3.3738
3.44041
3.50631
3.57142
3.63564
3.69887
3.76104
3.82206
3.88183
3.94028
3.99733
4.05289
4.10689
4.15925
4.2099
4.25877
4.3058
4.35092
4.39408
4.43521
4.47426
4.5112
4.54596
4.57852
4.60884
4.63689
4.66263
4.68606
4.70715
4.72588
4.74226
4.75628
4.76794
4.77724
4.78421
4.78886
4.79122
4.79131
4.78924
4.78479
4.77814
4.76932
4.75839
4.74539
4.73037
4.71338
4.69447
4.6737
4.65113
4.62683
4.60085
4.57327
4.54414
4.51354
4.48153
4.44818
4.41357
4.37776
4.34083
4.30284
4.26386
4.22397
4.18323
4.1417
4.09947
4.05659
4.01314
3.96919
3.92482
3.88012
3.83516
3.79002
3.74481
3.69962
3.65458
3.60983
3.56552
3.52184
3.479
3.43716
3.39643
3.35619
3.3151
0.032886
0.0552535
0.0696195
0.0799194
0.0883381
0.0957302
0.102521
0.108969
0.115248
0.121487
0.127785
0.134221
0.140861
0.147755
0.154946
0.162468
0.170349
0.178614
0.187284
0.196377
0.205911
0.215903
0.226371
0.237328
0.248791
0.260774
0.27329
0.286359
0.299999
0.314227
0.329062
0.344523
0.360627
0.377395
0.394845
0.413
0.431878
0.451502
0.471894
0.493077
0.515071
0.5379
0.561585
0.586144
0.611602
0.637989
0.665333
0.693661
0.723003
0.753385
0.784837
0.817386
0.85106
0.885885
0.921886
0.959089
0.997515
1.03719
1.07813
1.12036
1.16389
1.20874
1.25492
1.30245
1.35133
1.40156
1.45315
1.50608
1.56035
1.61595
1.67285
1.73105
1.7905
1.85118
1.91305
1.97607
2.0402
2.10538
2.17157
2.2387
2.30671
2.37554
2.44512
2.51537
2.58621
2.65757
2.72936
2.8015
2.8739
2.94647
3.01912
3.09175
3.16427
3.23659
3.3086
3.38021
3.45132
3.52183
3.59164
3.66066
3.7288
3.79594
3.86201
3.92691
3.99055
4.05284
4.1137
4.17303
4.23077
4.28684
4.34114
4.39362
4.44419
4.4928
4.53938
4.58387
4.62621
4.66635
4.70425
4.73986
4.77313
4.80405
4.83257
4.85867
4.88233
4.90353
4.92227
4.93853
4.95232
4.96364
4.97251
4.97893
4.98294
4.98456
4.98389
4.9809
4.97543
4.96768
4.9577
4.94553
4.93122
4.91482
4.89639
4.87599
4.85367
4.8295
4.80356
4.77589
4.74658
4.71569
4.68329
4.64946
4.61427
4.57779
4.54009
4.50125
4.46134
4.42042
4.37858
4.33587
4.29238
4.24815
4.20328
4.15782
4.11185
4.06545
4.0187
3.97168
3.92448
3.87719
3.82992
3.78279
3.73595
3.68954
3.64375
3.59877
3.55478
3.51188
3.46949
3.42653
0.0346869
0.0561187
0.0705253
0.0808941
0.0893673
0.0968046
0.103634
0.110114
0.11642
0.122681
0.128995
0.135439
0.142076
0.148954
0.156114
0.163587
0.171404
0.179589
0.188164
0.197147
0.206558
0.216414
0.226733
0.237534
0.248839
0.260671
0.27304
0.285961
0.299453
0.313537
0.328235
0.343568
0.359559
0.376233
0.393614
0.411727
0.430597
0.45025
0.470716
0.492025
0.514203
0.537277
0.561272
0.58622
0.612156
0.639113
0.667123
0.696218
0.726431
0.757797
0.790348
0.824119
0.859139
0.895435
0.933035
0.971963
1.01224
1.0539
1.09694
1.14141
1.1873
1.23463
1.28342
1.33367
1.38538
1.43855
1.49317
1.54923
1.60673
1.66563
1.72591
1.78754
1.85048
1.9147
1.98016
2.04679
2.11456
2.18339
2.25324
2.32403
2.39569
2.46815
2.54133
2.61516
2.68954
2.7644
2.83964
2.91517
2.99091
3.06675
3.1426
3.21835
3.29393
3.36921
3.4441
3.51851
3.59233
3.66546
3.73779
3.80924
3.87971
3.94908
4.01728
4.08421
4.14977
4.21388
4.27645
4.3374
4.39664
4.4541
4.50969
4.56335
4.615
4.66458
4.71202
4.75726
4.80025
4.84094
4.87928
4.91523
4.94875
4.97981
5.00837
5.03441
5.05793
5.07889
5.09729
5.11313
5.12641
5.13714
5.14533
5.151
5.15418
5.15491
5.15338
5.14931
5.14275
5.13386
5.12267
5.10925
5.09364
5.07589
5.05608
5.03425
5.01047
4.98481
4.95735
4.92814
4.89726
4.86479
4.83079
4.79535
4.75853
4.72042
4.68108
4.64059
4.59902
4.55644
4.51293
4.46855
4.42338
4.37748
4.33091
4.28375
4.23608
4.18796
4.13948
4.09071
4.04175
3.9927
3.94364
3.89472
3.84605
3.79781
3.75016
3.70329
3.65735
3.61249
3.56816
3.52355
0.0361913
0.0564359
0.0707487
0.0810993
0.089554
0.0969707
0.103781
0.110245
0.116536
0.12278
0.129073
0.135492
0.142096
0.148937
0.15605
0.163467
0.171216
0.179318
0.187797
0.196673
0.205963
0.215689
0.225866
0.236516
0.247653
0.259293
0.271454
0.284168
0.297461
0.31136
0.325891
0.341084
0.356969
0.373577
0.39094
0.409087
0.428053
0.447869
0.468569
0.490186
0.512763
0.536324
0.560897
0.586504
0.613182
0.640985
0.669955
0.700132
0.731555
0.764263
0.798295
0.833697
0.870492
0.908704
0.948361
0.989486
1.0321
1.07621
1.12184
1.16901
1.21773
1.268
1.31983
1.37321
1.42813
1.4846
1.54258
1.60206
1.66302
1.72541
1.78921
1.85438
1.92086
1.98861
2.05758
2.12771
2.19894
2.27119
2.3444
2.4185
2.49342
2.56906
2.64535
2.72221
2.79954
2.87726
2.95527
3.03348
3.1118
3.19013
3.26837
3.34642
3.42418
3.50156
3.57845
3.65475
3.73036
3.80518
3.87911
3.95205
4.02391
4.0946
4.164
4.23204
4.29862
4.36366
4.42706
4.48875
4.54865
4.60667
4.66275
4.71679
4.76875
4.81855
4.86613
4.91144
4.95441
4.99501
5.03319
5.0689
5.10211
5.13278
5.1609
5.18643
5.20936
5.22969
5.24739
5.26248
5.27494
5.28481
5.29208
5.29678
5.29895
5.29869
5.29614
5.29087
5.28316
5.27309
5.2607
5.24604
5.22917
5.21015
5.18904
5.16591
5.14081
5.11383
5.08503
5.05448
5.02226
4.98844
4.9531
4.91631
4.87815
4.8387
4.79803
4.75621
4.71331
4.66942
4.62459
4.5789
4.53241
4.48519
4.43731
4.38883
4.33982
4.29036
4.24052
4.19039
4.14004
4.08957
4.03909
3.98871
3.93857
3.88881
3.8396
3.79113
3.74353
3.69697
3.65095
3.60496
0.0375199
0.0564033
0.0705629
0.0808356
0.0892165
0.0965637
0.10331
0.109714
0.11595
0.122144
0.128388
0.134755
0.141301
0.14807
0.155098
0.162414
0.170045
0.17801
0.186335
0.195041
0.204151
0.213685
0.223666
0.234117
0.245062
0.256528
0.268547
0.281145
0.294352
0.308198
0.322718
0.337947
0.353921
0.370681
0.388274
0.406737
0.426105
0.446415
0.467703
0.49
0.513316
0.537705
0.563238
0.589981
0.617987
0.64729
0.677929
0.709945
0.743377
0.778259
0.814623
0.852488
0.891891
0.932864
0.975443
1.01963
1.06544
1.11286
1.16191
1.21259
1.2649
1.31883
1.37436
1.43149
1.49019
1.55044
1.61219
1.67543
1.7401
1.80616
1.87357
1.94227
2.01221
2.08333
2.15556
2.22884
2.3031
2.37828
2.45429
2.53106
2.6085
2.68655
2.76511
2.8441
2.92343
3.00302
3.08276
3.16258
3.24237
3.32204
3.40151
3.48066
3.55941
3.63766
3.7153
3.79226
3.86842
3.9437
4.01799
4.0912
4.16325
4.23403
4.30345
4.37143
4.43788
4.50271
4.56584
4.62719
4.68669
4.74425
4.7998
4.85328
4.9046
4.95372
5.00057
5.04511
5.08727
5.12702
5.1643
5.19908
5.23133
5.26101
5.2881
5.31258
5.33444
5.35366
5.37024
5.38419
5.39549
5.40418
5.41025
5.41374
5.41469
5.41338
5.40953
5.40302
5.3941
5.38281
5.36921
5.35334
5.33527
5.31506
5.29277
5.26847
5.24222
5.2141
5.18417
5.15252
5.11921
5.08431
5.04792
5.0101
4.97092
4.93047
4.88881
4.84602
4.80218
4.75734
4.71159
4.66498
4.61758
4.56945
4.52066
4.47127
4.42134
4.37095
4.32017
4.26907
4.21774
4.16627
4.11474
4.06329
4.01203
3.9611
3.91068
3.86092
3.81197
3.764
3.71658
3.66952
0.0387271
0.056188
0.0700384
0.0801231
0.0883367
0.0955292
0.102135
0.108412
0.114534
0.120624
0.12677
0.133039
0.139485
0.146147
0.153061
0.160257
0.167765
0.175613
0.183824
0.19242
0.201425
0.210867
0.220773
0.231174
0.2421
0.253583
0.265659
0.278369
0.291759
0.305869
0.320735