/*--------------------------------*- C++ -*----------------------------------*\
| =========                 |                                                 |
| \\      /  F ield         | OpenFOAM: The Open Source CFD Toolbox           |
|  \\    /   O peration     | Version:  2406                                  |
|   \\  /    A nd           | Website:  www.openfoam.com                      |
|    \\/     M anipulation  |                                                 |
\*---------------------------------------------------------------------------*/
FoamFile
{
    version     2.0;
    format      ascii;
    arch        "LSB;label=32;scalar=64";
    class       volScalarField;
    location    "282";
    object      nut;
}
// * * * * * * * * * * * * * * * * * * * * * * * * * * * * * * * * * * * * * //

dimensions      [0 2 -1 0 0 0 0];

internalField   nonuniform List<scalar> 
12225
(
2.70744e-05
3.55747e-05
4.05232e-05
4.31924e-05
4.44516e-05
4.49643e-05
4.49774e-05
4.47478e-05
4.45662e-05
4.42013e-05
4.38556e-05
4.35243e-05
4.32274e-05
4.29455e-05
4.27116e-05
4.24753e-05
4.2313e-05
4.20927e-05
0.000212995
8.46393e-05
5.59095e-05
4.40556e-05
3.83783e-05
3.53502e-05
3.38605e-05
3.30681e-05
3.28557e-05
3.28778e-05
3.32153e-05
3.36054e-05
3.42284e-05
3.48017e-05
3.55801e-05
3.62461e-05
3.70659e-05
3.77739e-05
0.000656999
0.000306529
0.000194016
0.000142101
0.000113227
9.44939e-05
8.20291e-05
7.3312e-05
6.68e-05
6.19623e-05
5.80408e-05
5.51127e-05
5.25311e-05
5.0712e-05
4.89089e-05
4.77853e-05
4.6642e-05
4.53081e-05
0.000863012
0.000609448
0.000451631
0.000350838
0.000289305
0.000246493
0.000216686
0.000194293
0.000177764
0.000164289
0.000154046
0.000145063
0.000138202
0.000131713
0.000126906
0.00012189
0.000118423
0.000113685
0.000877433
0.00077641
0.000690871
0.000591923
0.00051733
0.000458089
0.000413482
0.000377227
0.000349673
0.000325962
0.000307902
0.000291296
0.000278928
0.00026658
0.000257886
0.000248271
0.00024185
0.000233893
0.000858411
0.000835294
0.000807289
0.000753093
0.000699394
0.000648246
0.000604836
0.000565863
0.000534207
0.000505358
0.000482495
0.000460717
0.000444089
0.000427075
0.000414957
0.000401185
0.000392324
0.000380406
0.000854258
0.000849543
0.000840713
0.000823039
0.000798602
0.000768464
0.000739182
0.000709551
0.000683358
0.000657721
0.000636208
0.000614794
0.000597707
0.000579785
0.000566526
0.000551237
0.000541232
0.000527101
0.00085239
0.000851591
0.000849792
0.000844527
0.000835946
0.000824519
0.000810178
0.000793463
0.000777243
0.000760012
0.00074456
0.000728287
0.000714567
0.000699764
0.000688166
0.00067478
0.000665364
0.000652383
0.000851903
0.00085148
0.000851079
0.000849881
0.000847545
0.000843616
0.000838592
0.000831271
0.000823646
0.000814989
0.000806298
0.000796549
0.000787794
0.000778068
0.000769837
0.00076052
0.000753019
0.000743789
0.000851815
0.000851373
0.000851073
0.000850609
0.000850034
0.000848808
0.000847331
0.000844857
0.000841997
0.000838303
0.000834501
0.000829861
0.000825421
0.000820271
0.000815566
0.000810281
0.000805547
0.000799749
0.000851799
0.000851357
0.000851021
0.000850623
0.000850325
0.000849824
0.000849338
0.000848517
0.000847604
0.00084626
0.000844872
0.000843007
0.0008412
0.000838881
0.000836816
0.000834102
0.00083204
0.000828842
0.000851792
0.000851359
0.000851001
0.000850611
0.000850306
0.000849938
0.000849631
0.00084921
0.000848815
0.000848233
0.000847676
0.000846875
0.000846137
0.000845092
0.000844212
0.000842915
0.000841974
0.000840423
0.000851787
0.000851362
0.000850989
0.000850607
0.00085028
0.000849936
0.000849644
0.000849319
0.00084904
0.000848697
0.000848398
0.000848001
0.000847658
0.000847179
0.000846786
0.00084621
0.000845771
0.0008451
0.000851783
0.000851364
0.00085098
0.000850604
0.000850263
0.000849925
0.000849622
0.000849315
0.000849043
0.000848758
0.000848506
0.000848232
0.00084799
0.000847714
0.000847472
0.000847185
0.000846936
0.000846635
0.000851781
0.000851364
0.000850974
0.0008506
0.000850251
0.000849916
0.000849602
0.0008493
0.000849018
0.000848744
0.000848488
0.000848238
0.000848004
0.000847773
0.000847556
0.00084734
0.000847136
0.000846932
0.00085178
0.000851363
0.00085097
0.000850596
0.000850242
0.000849906
0.000849588
0.000849285
0.000848998
0.000848724
0.000848463
0.000848213
0.000847976
0.000847748
0.000847531
0.000847322
0.000847123
0.000846931
0.000851779
0.000851362
0.000850967
0.000850592
0.000850236
0.000849899
0.000849578
0.000849273
0.000848984
0.000848707
0.000848444
0.000848192
0.000847952
0.000847722
0.000847502
0.000847292
0.00084709
0.000846898
0.000851779
0.000851362
0.000850965
0.000850589
0.000850233
0.000849894
0.000849572
0.000849265
0.000848974
0.000848695
0.00084843
0.000848177
0.000847934
0.000847703
0.000847481
0.000847269
0.000847066
0.000846871
0.000851779
0.000851362
0.000850965
0.000850589
0.000850232
0.000849892
0.00084957
0.000849262
0.00084897
0.000848691
0.000848424
0.00084817
0.000847927
0.000847694
0.000847471
0.000847258
0.000847054
0.000846858
0.000851779
0.000851362
0.000850966
0.000850591
0.000850234
0.000849895
0.000849573
0.000849266
0.000848973
0.000848695
0.000848428
0.000848174
0.00084793
0.000847697
0.000847473
0.000847259
0.000847052
0.000846855
0.000851779
0.000851364
0.000850968
0.000850595
0.000850238
0.000849902
0.000849578
0.000849274
0.000848979
0.0008487
0.000848427
0.000848168
0.00084791
0.000847667
0.00084742
0.000847187
0.000846947
0.000846723
0.000851778
0.000851367
0.000850969
0.000850603
0.000850243
0.00084991
0.000849573
0.000849254
0.000848916
0.000848587
0.000848223
0.000847865
0.000847456
0.00084706
0.000846595
0.00084616
0.000845637
0.00084517
0.000851779
0.000851381
0.000850972
0.000850624
0.000850209
0.000849789
0.000849233
0.000848616
0.000847803
0.000846896
0.000845768
0.00084456
0.000843125
0.000841664
0.000839958
0.000838332
0.000836386
0.000834699
0.000851855
0.000851467
0.000850932
0.000850394
0.000849126
0.000847458
0.000844947
0.00084194
0.000838072
0.000833847
0.00082896
0.000823929
0.000818447
0.000813019
0.000807264
0.000801724
0.00079584
0.000790777
0.000852785
0.00085138
0.000849189
0.000845095
0.000836884
0.000827817
0.000815748
0.000802823
0.000788373
0.000774368
0.000759663
0.000746077
0.000732118
0.000719683
0.000706819
0.000695842
0.000684087
0.000674695
0.000858211
0.000842299
0.000828961
0.000803015
0.000769257
0.000735475
0.000700803
0.000669705
0.000639498
0.000613594
0.000588613
0.000567745
0.000547316
0.000530659
0.000513866
0.00050061
0.000486568
0.000476067
0.000864337
0.000785613
0.000712709
0.000628304
0.00055828
0.00050309
0.000455748
0.000418868
0.000386625
0.000361594
0.000338764
0.000321228
0.000304415
0.000291772
0.000278912
0.000269549
0.00025937
0.000252305
0.000775957
0.000540063
0.000397942
0.000312965
0.000258158
0.000219635
0.000190507
0.000169565
0.000152553
0.000139992
0.000129095
0.000121017
0.000113528
0.000108076
0.000102634
9.88117e-05
9.46879e-05
9.19152e-05
0.000323583
0.00016484
0.000111417
8.60758e-05
7.08266e-05
6.13546e-05
5.50184e-05
5.08856e-05
4.79532e-05
4.60098e-05
4.45906e-05
4.36882e-05
4.30394e-05
4.2695e-05
4.24553e-05
4.24393e-05
4.24359e-05
4.26226e-05
3.26574e-05
3.90518e-05
4.3892e-05
4.69715e-05
4.93654e-05
5.11699e-05
5.25343e-05
5.34595e-05
5.41141e-05
5.44634e-05
5.46907e-05
5.46974e-05
5.46544e-05
5.45501e-05
5.43772e-05
5.41699e-05
5.3945e-05
5.37084e-05
2.82349e-06
7.78168e-06
9.34524e-06
1.06093e-05
1.16016e-05
1.2386e-05
1.3017e-05
1.35337e-05
1.39647e-05
1.43494e-05
1.47218e-05
1.50853e-05
1.54506e-05
1.58262e-05
1.62155e-05
1.66177e-05
1.70302e-05
1.74526e-05
1.78932e-05
1.83816e-05
1.89714e-05
1.96667e-05
2.04288e-05
2.12404e-05
2.20993e-05
2.30077e-05
2.3968e-05
2.49812e-05
2.6045e-05
2.71535e-05
2.82933e-05
2.94576e-05
3.0639e-05
3.18284e-05
3.30202e-05
3.42091e-05
3.53919e-05
3.65658e-05
3.77291e-05
3.8881e-05
4.00214e-05
4.11512e-05
4.22719e-05
4.33862e-05
4.4498e-05
4.56128e-05
4.67379e-05
4.78841e-05
4.90291e-05
5.0165e-05
5.12962e-05
5.24218e-05
5.35429e-05
5.46599e-05
5.5773e-05
5.68828e-05
5.79893e-05
5.9093e-05
6.01939e-05
6.12922e-05
6.23877e-05
6.34806e-05
6.45707e-05
6.56579e-05
6.6742e-05
6.78228e-05
6.89e-05
6.99733e-05
7.10424e-05
7.21069e-05
7.31663e-05
7.42204e-05
7.52684e-05
7.63101e-05
7.73448e-05
7.83721e-05
7.93914e-05
8.04021e-05
8.14037e-05
8.23957e-05
8.33773e-05
8.4348e-05
8.53072e-05
8.62544e-05
8.71888e-05
8.81099e-05
8.9017e-05
8.99096e-05
9.07868e-05
9.16483e-05
9.24931e-05
9.33207e-05
9.41301e-05
9.49205e-05
9.5691e-05
9.64406e-05
9.7168e-05
9.7872e-05
9.85515e-05
9.92058e-05
9.98352e-05
0.000100443
0.000101033
0.000101597
0.00010214
0.000102659
0.000103155
0.000103628
0.000104077
0.000104502
0.000104902
0.000105277
0.000105628
0.000105953
0.000106252
0.000106526
0.000106774
0.000106996
0.000107192
0.000107361
0.000107504
0.00010762
0.00010771
0.000107774
0.000107811
0.000107822
0.000107806
0.000107764
0.000107696
0.000107603
0.000107482
0.000107338
0.000107173
0.000106977
0.000106755
0.000106506
0.000106237
0.000105947
0.000105629
0.00010529
0.000104928
0.000104544
0.000104139
0.000103712
0.000103264
0.000102797
0.000102309
0.000101803
0.000101278
0.000100735
0.000100174
9.95971e-05
9.90039e-05
9.83953e-05
9.77719e-05
9.71344e-05
9.64836e-05
9.58201e-05
9.51446e-05
9.4458e-05
9.37609e-05
9.30544e-05
9.23397e-05
9.16191e-05
9.09001e-05
9.02575e-05
8.98189e-05
8.94137e-05
8.90078e-05
8.85983e-05
8.81849e-05
8.77677e-05
8.73463e-05
8.69198e-05
8.64858e-05
8.60391e-05
8.55694e-05
8.50455e-05
8.44077e-05
8.25484e-05
4.43878e-06
1.81457e-05
4.02284e-05
5.94702e-05
7.36154e-05
8.3605e-05
9.06914e-05
9.57602e-05
9.93468e-05
0.000101754
0.000103477
0.000105113
0.000106899
0.000108871
0.000110969
0.0001131
0.000115183
0.000117161
0.000119024
0.00012083
0.000122393
0.000123739
0.000125045
0.000126424
0.000127952
0.000129699
0.000131747
0.000134196
0.000137186
0.0001409
0.000145064
0.000149662
0.00015467
0.000160083
0.000165876
0.000172003
0.000178464
0.000185219
0.000192235
0.000199476
0.000206906
0.000214491
0.000222196
0.000229987
0.000237833
0.000245709
0.000253599
0.000261504
0.00026946
0.000277458
0.000285505
0.000293602
0.000301752
0.000309958
0.000318223
0.000326551
0.000334946
0.000343411
0.00035195
0.000360566
0.000369263
0.000378043
0.000386909
0.000395862
0.000404905
0.000414037
0.000423261
0.000432576
0.000441983
0.000451479
0.000461064
0.000470737
0.000480495
0.000490336
0.000500256
0.000510252
0.00052032
0.000530455
0.000540653
0.000550909
0.000561217
0.000571572
0.000581967
0.000592397
0.000602856
0.000613335
0.00062383
0.000634333
0.000644839
0.000655341
0.000665833
0.000676309
0.000686765
0.000697192
0.000707586
0.000717936
0.000728228
0.000738441
0.000748536
0.000758441
0.000768029
0.000777083
0.000785535
0.000793934
0.000802178
0.000810287
0.00081825
0.000826065
0.000833723
0.000841219
0.000848548
0.000855703
0.000862679
0.000869471
0.000876074
0.000882482
0.00088869
0.000894695
0.000900493
0.000906078
0.000911448
0.000916598
0.000921526
0.000926227
0.0009307
0.000934941
0.000938949
0.000942723
0.000946262
0.000949566
0.000952636
0.000955463
0.000958055
0.000960481
0.000962599
0.000964332
0.000965853
0.000967307
0.00096844
0.000969331
0.000969987
0.000970407
0.000970593
0.000970549
0.000970275
0.000969779
0.000969062
0.00096813
0.000966986
0.000965634
0.000964079
0.000962326
0.00096038
0.000958247
0.000955932
0.00095344
0.000950779
0.000947953
0.000944969
0.000941832
0.000938547
0.000935117
0.000931539
0.000927782
0.000923669
0.00091829
0.000911137
0.000903388
0.000895418
0.000887332
0.000879169
0.000870943
0.00086266
0.000854316
0.00084589
0.000837333
0.000828492
0.000819097
0.000807723
0.000779802
5.75176e-06
2.70048e-05
6.21789e-05
9.48161e-05
0.00012113
0.000141113
0.000155783
0.000166449
0.000174255
0.000180068
0.000184606
0.000188456
0.000192009
0.000195484
0.000198972
0.000202485
0.000205995
0.000209463
0.000212849
0.000216115
0.000219499
0.000223204
0.000227347
0.000232029
0.000237351
0.000243395
0.000250216
0.00025782
0.000266122
0.00027492
0.000284461
0.000294749
0.000305748
0.000317397
0.000330006
0.000343391
0.000357251
0.00037152
0.000386141
0.00040106
0.000416229
0.000431607
0.000447156
0.000462842
0.00047864
0.00049453
0.0005105
0.000526548
0.000542695
0.000558937
0.000575278
0.000591724
0.000608279
0.000624948
0.000641737
0.000658651
0.000675695
0.000692874
0.000710194
0.000727663
0.000745284
0.000763061
0.000780996
0.000799092
0.000817348
0.000835766
0.000854344
0.000873081
0.000891975
0.000911022
0.000930218
0.000949559
0.000969038
0.00098865
0.00100839
0.00102824
0.0010482
0.00106826
0.00108841
0.00110864
0.00112893
0.00114928
0.00116968
0.0011901
0.00121055
0.001231
0.00125144
0.00127186
0.00129225
0.00131259
0.00133286
0.00135306
0.00137317
0.00139317
0.00141303
0.00143274
0.00145225
0.00147154
0.00149054
0.00150917
0.00152736
0.00154502
0.00156228
0.0015793
0.00159603
0.00161246
0.00162859
0.0016444
0.00165988
0.00167502
0.0016898
0.00170421
0.00171824
0.00173189
0.00174513
0.00175797
0.00177038
0.00178237
0.00179392
0.00180503
0.00181568
0.00182587
0.0018356
0.00184486
0.00185364
0.00186193
0.00186974
0.00187706
0.00188389
0.00189023
0.00189607
0.00190143
0.0019063
0.00191079
0.00191473
0.00191785
0.00192054
0.00192296
0.00192482
0.00192617
0.00192703
0.00192741
0.0019273
0.00192672
0.00192567
0.00192416
0.0019222
0.00191979
0.00191695
0.00191369
0.00191
0.00190592
0.00190143
0.00189656
0.00189132
0.00188571
0.00187975
0.00187346
0.00186684
0.00185991
0.00185268
0.00184515
0.00183732
0.00182915
0.00182041
0.00181037
0.00179857
0.00178584
0.00177264
0.00175915
0.00174546
0.0017316
0.00171759
0.00170343
0.00168908
0.00167443
0.00165919
0.00164261
0.00162192
0.00157974
6.68717e-06
3.72213e-05
8.35193e-05
0.000125318
0.000158918
0.000184733
0.000204071
0.00021837
0.000228954
0.000236953
0.000243285
0.000248657
0.000253574
0.000258368
0.000263229
0.000268259
0.000273509
0.000279017
0.00028483
0.000291027
0.000297729
0.000305062
0.000313129
0.000322019
0.000331803
0.000342531
0.000354225
0.000366882
0.000380479
0.000394996
0.000410466
0.000426877
0.000444212
0.000462462
0.000481209
0.000500382
0.000520057
0.000540181
0.000560689
0.000581513
0.000602605
0.000623953
0.000645526
0.000667299
0.000689262
0.000711417
0.000733794
0.000756364
0.000779083
0.000801949
0.000824965
0.000848138
0.000871472
0.000894973
0.000918649
0.000942505
0.000966547
0.000990779
0.00101521
0.00103984
0.00106468
0.00108973
0.001115
0.00114048
0.00116617
0.00119207
0.00121818
0.0012445
0.00127102
0.00129773
0.00132463
0.00135171
0.00137897
0.00140638
0.00143394
0.00146164
0.00148946
0.0015174
0.00154543
0.00157355
0.00160173
0.00162996
0.00165823
0.00168651
0.00171478
0.00174304
0.00177126
0.00179942
0.0018275
0.00185549
0.00188335
0.00191107
0.00193863
0.00196599
0.00199313
0.00202002
0.00204662
0.00207289
0.00209878
0.00212422
0.00214918
0.00217366
0.00219773
0.00222142
0.00224472
0.00226761
0.00229007
0.00231208
0.00233363
0.00235469
0.00237526
0.00239532
0.00241485
0.00243383
0.00245226
0.00247012
0.0024874
0.00250408
0.00252016
0.00253562
0.00255045
0.00256464
0.00257819
0.00259108
0.00260331
0.00261487
0.00262576
0.00263597
0.0026455
0.00265435
0.00266252
0.00267001
0.00267687
0.00268322
0.00268862
0.00269304
0.00269699
0.00270036
0.00270302
0.00270498
0.00270626
0.00270687
0.00270681
0.0027061
0.00270474
0.00270274
0.00270012
0.00269688
0.00269304
0.0026886
0.00268358
0.002678
0.00267187
0.00266519
0.002658
0.00265029
0.0026421
0.00263343
0.0026243
0.00261473
0.00260472
0.00259431
0.00258347
0.00257217
0.00256023
0.00254718
0.00253273
0.0025173
0.00250126
0.0024848
0.00246802
0.00245099
0.00243374
0.00241627
0.00239855
0.00238046
0.00236166
0.00234124
0.00231592
0.00227107
7.3444e-06
4.7799e-05
0.000104052
0.000153189
0.000192493
0.000222675
0.000245432
0.00026247
0.000275307
0.000285226
0.00029327
0.000300242
0.000306732
0.000313144
0.00031974
0.000326683
0.000334076
0.000342
0.000350531
0.000359752
0.000369757
0.000380637
0.000392469
0.000405317
0.000419226
0.000434218
0.000450298
0.000467452
0.000485654
0.000504872
0.000525067
0.000546184
0.000568144
0.000590852
0.000614171
0.000638042
0.000662433
0.0006873
0.000712597
0.000738287
0.000764333
0.000790671
0.00081727
0.000844106
0.000871159
0.000898409
0.000925821
0.000953396
0.000981164
0.00100913
0.0010373
0.00106567
0.00109426
0.00112306
0.00115208
0.00118133
0.0012108
0.00124051
0.00127045
0.00130062
0.00133104
0.00136171
0.00139263
0.00142379
0.0014552
0.00148684
0.00151872
0.00155084
0.00158317
0.00161571
0.00164846
0.0016814
0.00171452
0.00174781
0.00178124
0.00181482
0.00184851
0.00188231
0.0019162
0.00195015
0.00198415
0.00201818
0.00205222
0.00208625
0.00212024
0.00215417
0.00218803
0.00222178
0.00225541
0.00228889
0.0023222
0.0023553
0.00238818
0.0024208
0.00245314
0.00248515
0.00251681
0.00254809
0.00257895
0.00260936
0.00263933
0.00266883
0.00269788
0.00272647
0.00275459
0.00278221
0.00280932
0.0028359
0.00286192
0.00288737
0.00291223
0.00293648
0.00296011
0.00298309
0.00300541
0.00302706
0.00304802
0.00306827
0.00308781
0.00310661
0.00312467
0.00314198
0.00315853
0.0031743
0.00318929
0.00320348
0.00321688
0.00322948
0.00324128
0.00325226
0.00326245
0.00327184
0.00328062
0.00328854
0.0032954
0.00330118
0.00330647
0.00331096
0.00331462
0.00331746
0.00331949
0.00332073
0.00332118
0.00332085
0.00331975
0.00331789
0.00331528
0.00331194
0.00330788
0.00330311
0.00329764
0.00329149
0.00328467
0.00327721
0.00326911
0.00326039
0.00325108
0.00324119
0.00323073
0.00321973
0.00320821
0.00319617
0.00318362
0.00317053
0.00315678
0.00314211
0.00312634
0.00310966
0.00309231
0.00307445
0.0030562
0.00303763
0.00301877
0.00299966
0.00298026
0.00296047
0.00293996
0.00291771
0.0028906
0.00284776
7.81347e-06
5.75172e-05
0.000122819
0.000178513
0.000222828
0.000256877
0.000282705
0.000302268
0.000317254
0.000329076
0.000338872
0.000347526
0.000355696
0.000363846
0.000372292
0.000381241
0.000390833
0.00040117
0.000412335
0.000424405
0.000437452
0.00045154
0.00046672
0.000483029
0.000500485
0.00051909
0.000538826
0.000559666
0.000581566
0.000604475
0.000628334
0.000653071
0.000678608
0.000704864
0.00073176
0.000759237
0.000787247
0.000815743
0.00084468
0.000874017
0.000903714
0.000933733
0.000964045
0.000994627
0.00102546
0.00105653
0.00108782
0.00111934
0.00115109
0.00118307
0.00121528
0.00124773
0.00128042
0.00131335
0.00134652
0.00137995
0.00141362
0.00144756
0.00148176
0.00151624
0.00155096
0.00158594
0.00162118
0.00165666
0.00169238
0.00172834
0.00176454
0.00180095
0.00183759
0.00187442
0.00191145
0.00194865
0.00198603
0.00202356
0.00206122
0.002099
0.00213689
0.00217486
0.0022129
0.00225099
0.00228911
0.00232723
0.00236533
0.0024034
0.00244141
0.00247934
0.00251716
0.00255486
0.0025924
0.00262976
0.00266691
0.00270383
0.0027405
0.00277687
0.00281293
0.00284865
0.00288398
0.00291892
0.00295343
0.00298748
0.00302108
0.00305419
0.00308681
0.00311893
0.00315053
0.00318159
0.00321208
0.00324199
0.00327129
0.00329996
0.00332799
0.00335535
0.00338202
0.00340798
0.00343323
0.00345773
0.00348148
0.00350446
0.00352665
0.00354805
0.00356863
0.00358838
0.0036073
0.00362537
0.00364258
0.00365892
0.00367439
0.00368898
0.00370269
0.00371551
0.00372744
0.00373858
0.00374905
0.00375837
0.00376661
0.00377383
0.00378043
0.00378611
0.00379089
0.00379477
0.00379776
0.00379987
0.00380112
0.00380151
0.00380104
0.00379975
0.00379762
0.00379468
0.00379094
0.00378641
0.0037811
0.00377504
0.00376823
0.0037607
0.00375246
0.00374352
0.0037339
0.00372363
0.00371272
0.0037012
0.00368907
0.00367635
0.00366306
0.00364918
0.00363463
0.00361928
0.00360302
0.00358594
0.00356818
0.00354988
0.00353112
0.003512
0.00349256
0.00347284
0.00345284
0.00343248
0.00341148
0.0033889
0.003362
0.00332295
8.14963e-06
6.65653e-05
0.000139694
0.000201145
0.000249999
0.00028771
0.000316562
0.000338688
0.000355907
0.00036973
0.000381374
0.000391792
0.000401701
0.000411619
0.000421909
0.000432813
0.000444498
0.000457079
0.00047064
0.000485247
0.000500954
0.000517801
0.000535815
0.000555009
0.00057538
0.000596911
0.00061957
0.000643315
0.000668095
0.00069385
0.000720517
0.000748026
0.000776308
0.000805296
0.000834927
0.000865145
0.000895899
0.000927144
0.000958838
0.000990943
0.00102342
0.00105625
0.00108939
0.00112283
0.00115656
0.00119055
0.00122481
0.00125932
0.00129408
0.0013291
0.00136436
0.00139988
0.00143564
0.00147166
0.00150792
0.00154445
0.00158123
0.00161826
0.00165556
0.00169311
0.00173091
0.00176897
0.00180726
0.0018458
0.00188457
0.00192357
0.00196278
0.00200221
0.00204184
0.00208167
0.00212167
0.00216183
0.00220216
0.00224261
0.0022832
0.00232388
0.00236466
0.00240551
0.00244641
0.00248735
0.0025283
0.00256924
0.00261016
0.00265102
0.00269181
0.00273251
0.00277309
0.00281353
0.00285379
0.00289387
0.00293373
0.00297334
0.00301268
0.00305173
0.00309045
0.00312881
0.0031668
0.00320438
0.00324153
0.00327824
0.00331447
0.00335022
0.00338546
0.00342018
0.00345435
0.00348796
0.00352097
0.00355337
0.00358514
0.00361625
0.00364669
0.00367642
0.00370544
0.00373372
0.00376124
0.00378798
0.00381393
0.00383908
0.00386339
0.00388687
0.00390949
0.00393124
0.00395212
0.0039721
0.00399117
0.00400934
0.00402658
0.00404289
0.00405827
0.00407271
0.00408622
0.00409901
0.00411083
0.00412158
0.00413117
0.00413984
0.00414772
0.00415463
0.00416059
0.0041656
0.00416967
0.00417282
0.00417505
0.00417637
0.00417679
0.00417632
0.00417498
0.00417277
0.0041697
0.0041658
0.00416108
0.00415554
0.00414921
0.0041421
0.00413422
0.0041256
0.00411625
0.00410618
0.00409543
0.004084
0.00407191
0.00405918
0.00404582
0.00403184
0.00401719
0.0040018
0.00398562
0.00396868
0.00395108
0.00393292
0.00391427
0.00389523
0.00387584
0.00385618
0.00383626
0.00381605
0.00379532
0.00377327
0.00374761
0.00371247
8.41087e-06
7.42499e-05
0.000153908
0.000220515
0.000273644
0.000314994
0.000346954
0.000371774
0.000391368
0.000407323
0.000420924
0.000433181
0.000444865
0.000456541
0.000468612
0.000481355
0.000494956
0.000509542
0.000525197
0.000541978
0.000559923
0.000579054
0.000599379
0.000620893
0.000643578
0.000667406
0.000692333
0.000718309
0.000745278
0.00077318
0.000801953
0.000831532
0.000861857
0.000892871
0.000924531
0.000956775
0.000989552
0.00102282
0.00105654
0.00109067
0.00112518
0.00116005
0.00119527
0.0012308
0.00126662
0.00130274
0.00133913
0.0013758
0.00141274
0.00144993
0.00148737
0.00152505
0.00156298
0.00160116
0.00163957
0.00167823
0.00171714
0.00175629
0.00179567
0.0018353
0.00187517
0.00191526
0.00195558
0.00199612
0.00203688
0.00207786
0.00211903
0.0021604
0.00220196
0.00224369
0.00228559
0.00232764
0.00236984
0.00241216
0.0024546
0.00249714
0.00253976
0.00258245
0.00262518
0.00266795
0.00271074
0.00275351
0.00279626
0.00283896
0.00288159
0.00292414
0.00296656
0.00300886
0.00305099
0.00309293
0.00313467
0.00317617
0.0032174
0.00325835
0.00329899
0.00333928
0.00337921
0.00341875
0.00345787
0.00349656
0.00353478
0.00357252
0.00360976
0.00364646
0.00368262
0.00371821
0.0037532
0.00378756
0.00382129
0.00385434
0.00388671
0.00391836
0.00394928
0.00397945
0.00400884
0.00403744
0.00406523
0.00409218
0.00411829
0.00414354
0.00416791
0.00419138
0.00421395
0.0042356
0.00425632
0.00427609
0.00429492
0.00431279
0.00432969
0.00434561
0.00436063
0.00437488
0.00438799
0.00440013
0.00441108
0.00442117
0.00443033
0.00443849
0.00444567
0.00445187
0.0044571
0.00446138
0.00446471
0.0044671
0.00446856
0.0044691
0.00446874
0.00446748
0.00446533
0.00446232
0.00445845
0.00445374
0.00444819
0.00444184
0.00443468
0.00442675
0.00441804
0.00440859
0.0043984
0.0043875
0.0043759
0.00436362
0.00435067
0.00433707
0.00432279
0.00430781
0.00429209
0.00427568
0.00425861
0.00424097
0.00422283
0.00420427
0.00418537
0.00416618
0.00414678
0.00412715
0.00410714
0.00408609
0.00406217
0.00403139
8.90006e-06
7.80789e-05
0.000163491
0.000235505
0.000293116
0.000338345
0.00037361
0.000401295
0.000423414
0.000441626
0.000457279
0.000471434
0.000484907
0.000498307
0.000512073
0.00052651
0.000541827
0.000558159
0.000575593
0.000594184
0.000613956
0.000634916
0.000657058
0.000680368
0.000704825
0.000730408
0.000757049
0.000784689
0.00081327
0.000842733
0.000873018
0.000904066
0.000935814
0.000968196
0.00100119
0.00103477
0.0010689
0.00110354
0.00113863
0.00117416
0.00121009
0.00124638
0.00128299
0.00131987
0.00135705
0.00139452
0.00143227
0.00147034
0.00150867
0.00154724
0.00158604
0.00162506
0.00166431
0.00170378
0.00174347
0.00178338
0.00182351
0.00186386
0.00190443
0.00194521
0.00198621
0.00202741
0.00206882
0.00211043
0.00215225
0.00219426
0.00223646
0.00227884
0.0023214
0.00236413
0.00240702
0.00245007
0.00249325
0.00253657
0.00258001
0.00262355
0.00266719
0.00271091
0.00275469
0.00279852
0.00284238
0.00288625
0.00293012
0.00297397
0.00301777
0.0030615
0.00310514
0.00314868
0.00319208
0.00323532
0.00327838
0.00332124
0.00336385
0.00340621
0.00344829
0.00349005
0.00353147
0.00357252
0.00361319
0.00365344
0.00369324
0.00373258
0.00377143
0.00380977
0.00384756
0.00388478
0.00392142
0.00395743
0.00399281
0.00402752
0.00406154
0.00409484
0.00412741
0.00415922
0.00419025
0.00422048
0.00424989
0.00427846
0.00430618
0.00433301
0.00435896
0.00438399
0.00440811
0.00443129
0.00445353
0.0044748
0.00449511
0.00451444
0.00453278
0.00455013
0.00456661
0.00458214
0.00459661
0.00461009
0.00462243
0.0046339
0.00464436
0.00465379
0.00466222
0.00466966
0.00467612
0.0046816
0.00468612
0.00468968
0.00469229
0.00469397
0.00469473
0.00469457
0.00469351
0.00469157
0.00468874
0.00468506
0.00468053
0.00467516
0.00466898
0.00466199
0.00465421
0.00464565
0.00463633
0.00462627
0.00461548
0.00460398
0.00459178
0.0045789
0.00456534
0.00455108
0.00453613
0.0045205
0.00450423
0.00448738
0.00447001
0.00445222
0.00443407
0.00441565
0.00439703
0.00437826
0.00435923
0.00433942
0.0043174
0.00429092
9.45488e-06
7.94845e-05
0.000169381
0.00024648
0.000308499
0.000357687
0.000396367
0.000427031
0.000451779
0.000472337
0.000490105
0.000506188
0.000521443
0.000536515
0.000551875
0.000567856
0.000584683
0.000602504
0.000621413
0.000641475
0.000662718
0.000685111
0.000708622
0.00073321
0.000758802
0.000785386
0.000812972
0.000841522
0.000870982
0.000901299
0.000932419
0.000964291
0.000996868
0.00103011
0.00106398
0.00109843
0.00113342
0.00116888
0.00120478
0.00124109
0.00127778
0.00131482
0.00135222
0.00138994
0.00142798
0.00146628
0.00150484
0.00154358
0.00158256
0.00162175
0.00166113
0.00170069
0.00174043
0.00178036
0.00182047
0.00186077
0.00190126
0.00194194
0.00198281
0.00202388
0.00206513
0.00210658
0.00214822
0.00219005
0.00223207
0.00227428
0.00231668
0.00235926
0.00240203
0.00244498
0.00248811
0.0025314
0.00257486
0.00261847
0.00266223
0.00270613
0.00275015
0.00279429
0.00283853
0.00288285
0.00292725
0.00297171
0.0030162
0.00306071
0.00310523
0.00314972
0.00319417
0.00323856
0.00328286
0.00332705
0.0033711
0.00341498
0.00345868
0.00350215
0.00354538
0.00358834
0.003631
0.00367333
0.00371529
0.00375688
0.00379805
0.00383877
0.00387903
0.00391879
0.00395803
0.00399672
0.00403482
0.00407233
0.0041092
0.00414541
0.00418094
0.00421576
0.00424985
0.00428318
0.00431573
0.00434748
0.0043784
0.00440849
0.00443771
0.00446605
0.00449349
0.00452001
0.00454561
0.00457026
0.00459395
0.00461668
0.00463842
0.00465917
0.00467893
0.00469769
0.00471554
0.00473236
0.0047482
0.00476302
0.0047768
0.00478964
0.00480143
0.00481216
0.00482189
0.00483061
0.00483835
0.0048451
0.00485088
0.00485569
0.00485955
0.00486246
0.00486445
0.00486551
0.00486567
0.00486493
0.00486331
0.00486081
0.00485746
0.00485326
0.00484824
0.00484239
0.00483574
0.0048283
0.00482008
0.00481109
0.00480136
0.00479089
0.0047797
0.00476781
0.00475522
0.00474194
0.00472797
0.00471333
0.00469805
0.00468219
0.00466581
0.00464898
0.00463179
0.00461433
0.00459669
0.00457893
0.00456102
0.00454254
0.0045224
0.00449942
9.94341e-06
7.96833e-05
0.000172714
0.000254123
0.000320162
0.000373149
0.000415201
0.000448854
0.00047626
0.000499194
0.000519093
0.0005371
0.000554103
0.000570773
0.000587612
0.000604991
0.000623148
0.000642202
0.000662213
0.000683174
0.000705165
0.000728251
0.000752433
0.000777692
0.000804021
0.000831407
0.00085979
0.000889082
0.000919226
0.000950168
0.000981858
0.00101425
0.0010473
0.00108096
0.00111518
0.00114992
0.00118511
0.00122075
0.00125679
0.0012932
0.00132996
0.00136704
0.00140442
0.00144207
0.00147997
0.0015181
0.00155648
0.00159515
0.00163408
0.00167316
0.00171232
0.00175159
0.00179099
0.00183052
0.00187019
0.00191002
0.00195001
0.00199016
0.00203049
0.00207099
0.00211167
0.00215254
0.0021936
0.00223486
0.00227633
0.002318
0.00235988
0.00240198
0.00244429
0.00248682
0.00252957
0.00257253
0.0026157
0.00265908
0.00270266
0.00274644
0.0027904
0.00283454
0.00287885
0.00292331
0.0029679
0.00301262
0.00305745
0.00310236
0.00314733
0.00319235
0.00323739
0.00328243
0.00332744
0.0033724
0.00341728
0.00346205
0.00350668
0.00355114
0.00359541
0.00363945
0.00368323
0.00372672
0.00376989
0.00381271
0.00385515
0.00389718
0.00393877
0.00397988
0.00402049
0.00406056
0.00410008
0.004139
0.00417731
0.00421497
0.00425195
0.00428824
0.00432379
0.00435859
0.00439262
0.00442585
0.00445826
0.00448982
0.00452051
0.00455033
0.00457924
0.00460723
0.00463429
0.00466039
0.00468553
0.00470969
0.00473287
0.00475504
0.00477622
0.00479639
0.00481558
0.00483376
0.00485098
0.00486719
0.00488239
0.00489667
0.00490981
0.00492188
0.00493295
0.00494302
0.00495209
0.00496018
0.00496729
0.00497343
0.00497862
0.00498287
0.00498618
0.00498857
0.00499005
0.00499064
0.00499034
0.00498917
0.00498714
0.00498426
0.00498055
0.00497601
0.00497067
0.00496452
0.00495758
0.00494987
0.00494139
0.00493216
0.00492219
0.0049115
0.0049001
0.00488799
0.0048752
0.00486174
0.00484763
0.00483294
0.0048177
0.004802
0.00478592
0.00476957
0.00475304
0.00473642
0.0047197
0.00470259
0.00468422
0.00466419
1.0361e-05
7.90243e-05
0.000174013
0.000258885
0.000328435
0.000384911
0.000430167
0.000466717
0.000496729
0.000521998
0.000543987
0.000563872
0.000582571
0.000600728
0.000618813
0.000637125
0.000655992
0.000675665
0.000696286
0.000717973
0.000740792
0.000764675
0.000789588
0.000815503
0.000842387
0.000870178
0.000898795
0.000928219
0.000958411
0.000989327