/*--------------------------------*- C++ -*----------------------------------*\
| =========                 |                                                 |
| \\      /  F ield         | OpenFOAM: The Open Source CFD Toolbox           |
|  \\    /   O peration     | Version:  2406                                  |
|   \\  /    A nd           | Website:  www.openfoam.com                      |
|    \\/     M anipulation  |                                                 |
\*---------------------------------------------------------------------------*/
FoamFile
{
    version     2.0;
    format      ascii;
    arch        "LSB;label=32;scalar=64";
    class       volScalarField;
    location    "282";
    object      p;
}
// * * * * * * * * * * * * * * * * * * * * * * * * * * * * * * * * * * * * * //

dimensions      [0 2 -2 0 0 0 0];

internalField   nonuniform List<scalar> 
12225
(
-1.70933
-3.86656
-4.95919
-5.27297
-5.44981
-5.62858
-5.7767
-5.88835
-5.98
-6.06297
-6.14034
-6.21317
-6.28315
-6.35227
-6.42303
-6.49486
-6.58238
-6.63561
-4.83957
-5.62723
-5.83218
-5.74423
-5.71923
-5.78354
-5.86665
-5.94099
-6.01049
-6.07976
-6.14838
-6.21544
-6.28148
-6.3477
-6.41579
-6.48701
-6.56617
-6.66924
-5.21958
-5.15353
-5.27303
-5.36013
-5.46853
-5.61106
-5.74589
-5.85636
-5.95039
-6.03605
-6.11582
-6.19057
-6.26183
-6.33139
-6.40125
-6.47265
-6.55037
-6.63334
-5.09227
-5.00484
-5.2641
-5.45626
-5.57879
-5.70008
-5.8137
-5.9081
-5.98927
-6.06448
-6.13604
-6.20439
-6.27051
-6.33567
-6.40121
-6.46787
-6.53681
-6.60278
-5.08386
-5.0984
-5.34543
-5.51049
-5.60347
-5.70196
-5.80422
-5.89469
-5.97477
-6.04986
-6.12174
-6.19057
-6.257
-6.32199
-6.38645
-6.45061
-6.51402
-6.57303
-5.14491
-5.18996
-5.3765
-5.51654
-5.60675
-5.7029
-5.80347
-5.89391
-5.97422
-6.04907
-6.12036
-6.18836
-6.25365
-6.31702
-6.37906
-6.43967
-6.49802
-6.55131
-5.20752
-5.24977
-5.39383
-5.52421
-5.61833
-5.71212
-5.80817
-5.89585
-5.97444
-6.0477
-6.11742
-6.18392
-6.24762
-6.30907
-6.3686
-6.42588
-6.47999
-6.52865
-5.26304
-5.30023
-5.41778
-5.53866
-5.63223
-5.7214
-5.81192
-5.89639
-5.97317
-6.0449
-6.11314
-6.17822
-6.24038
-6.29998
-6.35712
-6.41141
-6.46198
-6.5071
-5.31482
-5.34866
-5.44626
-5.55514
-5.64527
-5.72991
-5.81542
-5.89669
-5.97156
-6.04165
-6.10829
-6.17178
-6.23226
-6.2899
-6.34468
-6.39621
-6.44378
-6.48613
-5.36392
-5.39453
-5.47594
-5.57258
-5.65819
-5.73869
-5.81949
-5.89732
-5.96992
-6.03812
-6.10294
-6.16466
-6.22331
-6.27893
-6.33144
-6.38048
-6.42552
-6.46566
-5.41014
-5.43726
-5.50572
-5.5911
-5.67148
-5.74785
-5.82409
-5.89828
-5.96832
-6.03441
-6.09726
-6.15706
-6.21378
-6.26737
-6.31772
-6.36452
-6.4074
-6.44574
-5.44969
-5.47372
-5.53268
-5.6088
-5.68394
-5.75639
-5.82862
-5.89942
-5.96693
-6.03094
-6.09186
-6.14981
-6.20471
-6.25646
-6.30493
-6.34987
-6.39106
-6.42801
-5.48603
-5.50741
-5.55857
-5.62645
-5.6963
-5.76484
-5.83325
-5.90069
-5.9656
-6.02746
-6.08641
-6.14248
-6.19557
-6.24553
-6.29224
-6.33551
-6.3752
-6.41097
-5.52381
-5.54258
-5.58647
-5.64622
-5.71016
-5.77424
-5.83849
-5.90222
-5.9641
-6.02343
-6.08009
-6.134
-6.18504
-6.23305
-6.2779
-6.31946
-6.35766
-6.3923
-5.56152
-5.57775
-5.61516
-5.66725
-5.72498
-5.78418
-5.84402
-5.90377
-5.96227
-6.01872
-6.0728
-6.12433
-6.17314
-6.21908
-6.26202
-6.30188
-6.33864
-6.37221
-5.59686
-5.61076
-5.64265
-5.68792
-5.73958
-5.79376
-5.84912
-5.9048
-5.95973
-6.0131
-6.06442
-6.11344
-6.15994
-6.20378
-6.24484
-6.28308
-6.31849
-6.35106
-5.62644
-5.63841
-5.6659
-5.70554
-5.75181
-5.8013
-5.85245
-5.90427
-5.95575
-6.00606
-6.05467
-6.10122
-6.14551
-6.18736
-6.22668
-6.26344
-6.29766
-6.32935
-5.64527
-5.65587
-5.68029
-5.71594
-5.7582
-5.80402
-5.8518
-5.90049
-5.94911
-5.99684
-6.04312
-6.08758
-6.12998
-6.17017
-6.20805
-6.2436
-6.27685
-6.30783
-5.64563
-5.65559
-5.67869
-5.71265
-5.7532
-5.79732
-5.84342
-5.89047
-5.93754
-5.98383
-6.02876
-6.07196
-6.11322
-6.1524
-6.18943
-6.22429
-6.25701
-6.28767
-5.62142
-5.63191
-5.65622
-5.69198
-5.73439
-5.77996
-5.8271
-5.87497
-5.9227
-5.96947
-6.0147
-6.05809
-6.09944
-6.13865
-6.17567
-6.2105
-6.24321
-6.27387
-5.58717
-5.59856
-5.62535
-5.66499
-5.71127
-5.75984
-5.80941
-5.85946
-5.90905
-5.95725
-6.00356
-6.0478
-6.08984
-6.12961
-6.16709
-6.20232
-6.23538
-6.2664
-5.54487
-5.55698
-5.58755
-5.63384
-5.68579
-5.73795
-5.79057
-5.84378
-5.89617
-5.94651
-5.99444
-6.03994
-6.08297
-6.12348
-6.16151
-6.19715
-6.2305
-6.26173
-5.49792
-5.50934
-5.54443
-5.60077
-5.66042
-5.71662
-5.77254
-5.82912
-5.88435
-5.93694
-5.98678
-6.03391
-6.07828
-6.11986
-6.15874
-6.1951
-6.22909
-6.26094
-5.44886
-5.45794
-5.49937
-5.56711
-5.63356
-5.69474
-5.7563
-5.8175
-5.87551
-5.92983
-5.98104
-6.02928
-6.07444
-6.11655
-6.15581
-6.19242
-6.22656
-6.25837
-5.39771
-5.39902
-5.46203
-5.54392
-5.60773
-5.66862
-5.73641
-5.80432
-5.86697
-5.92469
-5.97875
-6.02929
-6.07614
-6.11943
-6.1595
-6.19667
-6.23128
-6.2638
-5.35144
-5.30299
-5.41894
-5.54066
-5.60347
-5.65638
-5.72129
-5.78829
-5.85029
-5.90807
-5.96286
-6.01445
-6.0624
-6.10678
-6.14789
-6.18608
-6.22155
-6.25445
-5.36854
-5.17054
-5.3039
-5.48221
-5.58773
-5.66859
-5.74834
-5.82092
-5.88425
-5.94171
-5.99522
-6.04481
-6.09031
-6.1321
-6.17064
-6.20635
-6.23973
-6.27183
-5.50942
-5.26198
-5.23862
-5.29397
-5.37707
-5.48576
-5.59724
-5.69513
-5.7801
-5.85667
-5.9265
-5.98946
-6.04579
-6.09635
-6.14194
-6.18321
-6.22096
-6.25652
-5.23741
-5.86814
-5.98691
-5.84707
-5.7595
-5.76693
-5.80922
-5.85423
-5.89992
-5.94821
-5.99731
-6.04477
-6.08926
-6.1307
-6.16915
-6.20449
-6.23707
-6.26826
-2.18296
-3.95007
-4.96342
-5.24501
-5.37156
-5.51436
-5.64435
-5.74512
-5.82745
-5.90072
-5.96702
-6.02622
-6.07889
-6.12594
-6.16809
-6.20553
-6.2384
-6.26515
-7.04992
-7.04966
-7.04962
-7.05002
-7.05084
-7.052
-7.05339
-7.05494
-7.05656
-7.05823
-7.05998
-7.06181
-7.06374
-7.0658
-7.06801
-7.07041
-7.07301
-7.07587
-7.079
-7.08246
-7.08628
-7.0905
-7.09516
-7.1003
-7.10599
-7.11227
-7.11923
-7.12692
-7.13544
-7.14486
-7.15528
-7.16677
-7.17938
-7.19316
-7.20817
-7.22441
-7.2419
-7.26062
-7.28054
-7.30162
-7.32382
-7.34707
-7.37129
-7.39641
-7.42239
-7.44919
-7.47671
-7.50481
-7.53335
-7.56224
-7.59143
-7.62086
-7.65046
-7.68017
-7.70991
-7.73961
-7.7692
-7.7986
-7.82773
-7.85649
-7.88478
-7.91252
-7.93959
-7.96588
-7.99126
-8.01562
-8.03882
-8.06071
-8.08115
-8.09998
-8.11704
-8.13217
-8.14519
-8.15591
-8.16416
-8.16974
-8.17245
-8.17211
-8.1685
-8.16142
-8.15067
-8.13604
-8.11731
-8.09428
-8.06675
-8.03451
-7.99735
-7.95507
-7.90749
-7.8544
-7.79563
-7.731
-7.66034
-7.58349
-7.50031
-7.41065
-7.31437
-7.21134
-7.10154
-6.98505
-6.86193
-6.73186
-6.59434
-6.44934
-6.29707
-6.13756
-5.97086
-5.79699
-5.61599
-5.42792
-5.23284
-5.03084
-4.82202
-4.60651
-4.38443
-4.15595
-3.92122
-3.68043
-3.43378
-3.18148
-2.92376
-2.66087
-2.39305
-2.12057
-1.8437
-1.56273
-1.27796
-0.989695
-0.698254
-0.40396
-0.10714
0.19188
0.492786
0.795241
1.09888
1.40332
1.70825
2.01334
2.31826
2.62264
2.92616
3.22849
3.52932
3.82832
4.1252
4.41965
4.7114
5.00017
5.28569
5.56773
5.84604
6.12041
6.39061
6.65647
6.9178
7.17442
7.4262
7.67299
7.91466
8.15112
8.38225
8.60798
8.82824
9.04297
9.25216
9.45593
9.65414
9.84644
10.0328
10.2133
10.3879
10.5567
10.7197
10.877
11.0287
11.1752
11.3177
11.457
11.6036
11.754
-7.05039
-7.05017
-7.05015
-7.05062
-7.05149
-7.05256
-7.05371
-7.05489
-7.0561
-7.05733
-7.05857
-7.05988
-7.06129
-7.06285
-7.06458
-7.0665
-7.06864
-7.07101
-7.07366
-7.0766
-7.07983
-7.08341
-7.0874
-7.09187
-7.09687
-7.1025
-7.10882
-7.11592
-7.1239
-7.13284
-7.14282
-7.15391
-7.16618
-7.17969
-7.19446
-7.21052
-7.22786
-7.24644
-7.26625
-7.28721
-7.30928
-7.33238
-7.35644
-7.38137
-7.40712
-7.4336
-7.46073
-7.48842
-7.51655
-7.54507
-7.57389
-7.60297
-7.63222
-7.66159
-7.691
-7.7204
-7.7497
-7.77882
-7.8077
-7.83623
-7.86432
-7.89188
-7.9188
-7.94498
-7.97028
-7.99459
-8.01777
-8.03969
-8.06019
-8.07912
-8.09633
-8.11164
-8.12489
-8.13588
-8.14445
-8.1504
-8.15353
-8.15365
-8.15056
-8.14405
-8.13391
-8.11994
-8.10194
-8.07969
-8.05298
-8.02162
-7.9854
-7.94411
-7.89757
-7.84559
-7.78798
-7.72457
-7.6552
-7.57971
-7.49794
-7.40977
-7.31505
-7.21365
-7.10546
-6.99031
-6.868
-6.73848
-6.60195
-6.45842
-6.30776
-6.14993
-5.98493
-5.81277
-5.6335
-5.44716
-5.25381
-5.05354
-4.84645
-4.63265
-4.41227
-4.18547
-3.9524
-3.71325
-3.46821
-3.21749
-2.96132
-2.69993
-2.43357
-2.1625
-1.887
-1.60735
-1.32384
-1.03678
-0.746479
-0.453266
-0.157466
0.140599
0.440619
0.742263
1.04516
1.34894
1.65328
1.95786
2.26233
2.56636
2.8696
3.17174
3.47244
3.7714
4.06831
4.36288
4.65481
4.94384
5.2297
5.51214
5.79092
6.06582
6.33663
6.60314
6.86518
7.12257
7.37517
7.62282
7.86541
8.10283
8.33496
8.56173
8.78311
8.99905
9.20944
9.4139
9.61232
9.80489
9.99159
10.1724
10.3475
10.5168
10.6803
10.8382
10.9908
11.1384
11.2825
11.4237
11.5737
11.72
-7.04936
-7.04939
-7.04967
-7.05033
-7.05123
-7.05217
-7.05304
-7.05384
-7.05459
-7.05531
-7.05605
-7.05685
-7.05774
-7.05874
-7.0599
-7.06121
-7.06272
-7.06445
-7.06644
-7.06873
-7.0714
-7.0745
-7.07811
-7.08229
-7.08712
-7.0927
-7.0991
-7.1064
-7.11466
-7.12395
-7.13432
-7.14583
-7.1585
-7.17236
-7.18742
-7.20367
-7.22107
-7.23961
-7.25925
-7.27993
-7.30161
-7.32422
-7.34771
-7.37202
-7.39707
-7.42281
-7.44916
-7.47604
-7.50338
-7.53112
-7.5592
-7.58754
-7.61609
-7.64478
-7.67354
-7.70232
-7.73102
-7.75959
-7.78793
-7.81597
-7.8436
-7.87074
-7.89727
-7.9231
-7.94809
-7.97213
-7.99509
-8.01682
-8.03718
-8.05603
-8.0732
-8.08852
-8.10183
-8.11294
-8.12168
-8.12786
-8.13128
-8.13176
-8.12907
-8.12304
-8.11345
-8.10009
-8.08275
-8.06124
-8.03535
-8.00486
-7.96958
-7.92931
-7.88385
-7.83302
-7.77663
-7.7145
-7.64647
-7.57238
-7.49207
-7.4054
-7.31224
-7.21247
-7.10599
-6.99265
-6.87226
-6.74471
-6.61011
-6.46848
-6.31976
-6.16392
-6.00094
-5.83084
-5.65364
-5.46939
-5.27814
-5.07999
-4.87501
-4.66333
-4.44507
-4.22038
-3.9894
-3.75233
-3.50935
-3.26066
-3.00649
-2.74707
-2.48265
-2.21347
-1.93981
-1.66196
-1.38019
-1.09482
-0.806156
-0.514512
-0.220219
0.076405
0.375052
0.675392
0.977058
1.27969
1.58297
1.88656
2.19013
2.49333
2.79584
3.09732
3.39745
3.69592
3.99243
4.28668
4.57838
4.86725
5.15302
5.43546
5.7143
5.98934
6.26034
6.52712
6.78948
7.04726
7.30029
7.54843
7.79155
8.02952
8.26224
8.48962
8.71154
8.92795
9.13883
9.34409
9.5437
9.73759
9.92566
10.1079
10.2843
10.4549
10.6199
10.7794
10.9336
11.0831
11.2296
11.3728
11.5258
11.6615
-7.04625
-7.04672
-7.04754
-7.04856
-7.04958
-7.05049
-7.05126
-7.0519
-7.05245
-7.05294
-7.05343
-7.05395
-7.05455
-7.05528
-7.05616
-7.05722
-7.0585
-7.06005
-7.0619
-7.06411
-7.06676
-7.06991
-7.07363
-7.07801
-7.0831
-7.089
-7.09576
-7.10345
-7.11212
-7.12182
-7.13259
-7.14445
-7.15742
-7.17151
-7.18669
-7.20296
-7.22029
-7.23867
-7.25804
-7.27838
-7.29964
-7.32177
-7.34471
-7.36841
-7.39282
-7.41789
-7.44354
-7.46973
-7.49639
-7.52346
-7.55088
-7.5786
-7.60655
-7.63467
-7.6629
-7.69116
-7.71939
-7.74752
-7.77546
-7.80312
-7.83042
-7.85726
-7.88353
-7.90913
-7.93393
-7.95782
-7.98067
-8.00233
-8.02267
-8.04153
-8.05875
-8.07417
-8.08761
-8.09891
-8.10788
-8.11434
-8.11808
-8.11892
-8.11665
-8.11108
-8.10199
-8.08919
-8.07246
-8.05161
-8.02641
-7.99668
-7.96219
-7.92277
-7.8782
-7.82831
-7.7729
-7.7118
-7.64484
-7.57185
-7.49268
-7.40718
-7.3152
-7.21664
-7.11136
-6.99927
-6.88022
-6.75414
-6.62103
-6.4809
-6.3337
-6.17939
-6.01797
-5.84944
-5.67383
-5.49118
-5.30154
-5.105
-4.90165
-4.69159
-4.47494
-4.25185
-4.02248
-3.78699
-3.54558
-3.29844
-3.0458
-2.78788
-2.52493
-2.2572
-1.98495
-1.70846
-1.42803
-1.14395
-0.856522
-0.566076
-0.272934
0.0225948
0.320202
0.619545
0.920257
1.22201
1.52447
1.82732
2.13019
2.43276
2.73469
3.03567
3.33536
3.63346
3.92965
4.22364
4.51515
4.80389
5.0896
5.37201
5.6509
5.92603
6.19718
6.46415
6.72676
6.98482
7.23817
7.48666
7.73015
7.96853
8.20171
8.42957
8.65203
8.869
9.08044
9.28637
9.48678
9.68153
9.8705
10.0537
10.231
10.4027
10.5686
10.7291
10.8845
11.0352
11.1828
11.3262
11.4782
11.601
-7.04107
-7.04211
-7.04375
-7.0454
-7.04676
-7.04783
-7.04868
-7.04933
-7.04985
-7.05029
-7.05072
-7.05118
-7.05172
-7.0524
-7.05326
-7.05434
-7.05569
-7.05736
-7.05939
-7.06185
-7.0648
-7.06833
-7.07248
-7.07734
-7.08296
-7.08941
-7.09673
-7.10498
-7.11418
-7.12438
-7.13559
-7.14782
-7.16109
-7.1754
-7.19072
-7.20705
-7.22435
-7.24262
-7.2618
-7.28187
-7.3028
-7.32453
-7.34703
-7.37025
-7.39415
-7.41867
-7.44378
-7.46941
-7.49552
-7.52205
-7.54896
-7.57617
-7.60364
-7.63131
-7.65911
-7.68697
-7.71484
-7.74262
-7.77025
-7.79763
-7.82468
-7.85131
-7.87739
-7.90284
-7.92753
-7.95133
-7.97412
-7.99576
-8.01611
-8.03501
-8.05231
-8.06783
-8.08142
-8.0929
-8.10207
-8.10877
-8.11278
-8.11392
-8.112
-8.10679
-8.09811
-8.08574
-8.06949
-8.04913
-8.02447
-7.99529
-7.96141
-7.9226
-7.87869
-7.82948
-7.77478
-7.71443
-7.64823
-7.57603
-7.49767
-7.413
-7.32189
-7.2242
-7.11982
-7.00864
-6.89057
-6.76552
-6.63347
-6.49438
-6.34823
-6.19499
-6.03464
-5.86719
-5.69267
-5.51112
-5.32259
-5.12715
-4.9249
-4.71594
-4.50039
-4.2784
-4.05011
-3.8157
-3.57535
-3.32927
-3.07767
-2.82077
-2.55881
-2.29205
-2.02075
-1.74519
-1.46565
-1.18243
-0.895845
-0.606205
-0.313832
-0.0190283
0.27789
0.576565
0.876641
1.17781
1.47975
1.78211
2.08454
2.38671
2.68829
2.98896
3.28839
3.58627
3.88229
4.17616
4.46758
4.75629
5.042
5.32447
5.60345
5.8787
6.15002
6.4172
6.68003
6.93835
7.192
7.44082
7.68469
7.92348
8.15707
8.38537
8.60829
8.82574
9.03764
9.244
9.44479
9.63994
9.82935
10.013
10.1909
10.363
10.5295
10.6906
10.8465
10.9975
11.1452
11.2874
11.4366
11.5473
-7.03439
-7.03607
-7.03872
-7.04116
-7.04302
-7.04442
-7.04549
-7.04631
-7.04696
-7.04751
-7.04804
-7.04861
-7.04929
-7.05013
-7.05117
-7.05249
-7.05412
-7.05611
-7.05854
-7.06145
-7.0649
-7.06897
-7.07371
-7.07918
-7.08542
-7.0925
-7.10043
-7.10927
-7.11903
-7.12973
-7.14139
-7.154
-7.16758
-7.18211
-7.19757
-7.21396
-7.23125
-7.24942
-7.26845
-7.28831
-7.30896
-7.33038
-7.35252
-7.37535
-7.39884
-7.42294
-7.44761
-7.47281
-7.49849
-7.5246
-7.55109
-7.57791
-7.60501
-7.63232
-7.6598
-7.68736
-7.71495
-7.74249
-7.7699
-7.79709
-7.82398
-7.85047
-7.87646
-7.90183
-7.92647
-7.95025
-7.97305
-7.99473
-8.01514
-8.03413
-8.05154
-8.0672
-8.08095
-8.09261
-8.102
-8.10892
-8.11319
-8.1146
-8.11297
-8.10808
-8.09973
-8.08772
-8.07184
-8.05187
-8.02762
-7.99887
-7.96543
-7.92709
-7.88366
-7.83494
-7.78076
-7.72093
-7.65527
-7.58363
-7.50584
-7.42176
-7.33125
-7.23418
-7.13043
-7.01991
-6.90251
-6.77816
-6.64683
-6.50846
-6.36303
-6.2105
-6.05088
-5.88417
-5.71038
-5.52957
-5.34178
-5.14709
-4.94558
-4.73737
-4.52257
-4.30131
-4.07376
-3.84009
-3.60047
-3.3551
-3.10421
-2.848
-2.58673
-2.32064
-2.05
-1.77508
-1.49617
-1.21356
-0.927555
-0.638481
-0.346647
-0.0523516
0.244071
0.542262
0.841887
1.14265
1.44422
1.74623
2.04834
2.35022
2.65155
2.95199
3.25123
3.54896
3.84486
4.13864
4.43001
4.71869
5.00441
5.28692
5.56598
5.84133
6.11278
6.3801
6.64313
6.90166
7.15555
7.40464
7.6488
7.88789
8.1218
8.35042
8.57367
8.79146
9.00369
9.21034
9.41139
9.60679
9.79647
9.98041
10.1586
10.3311
10.4979
10.6592
10.8153
10.9663
11.1134
11.2538
11.4001
11.5
-7.02718
-7.02948
-7.03319
-7.03648
-7.03891
-7.04074
-7.04215
-7.04326
-7.04416
-7.04496
-7.04574
-7.04657
-7.04753
-7.04868
-7.05008
-7.05178
-7.05384
-7.05632
-7.05926
-7.06273
-7.06678
-7.07147
-7.07684
-7.08294
-7.08981
-7.0975
-7.10602
-7.1154
-7.12566
-7.1368
-7.14885
-7.16178
-7.17562
-7.19033
-7.20592
-7.22237
-7.23967
-7.25778
-7.2767
-7.29641
-7.31686
-7.33804
-7.35993
-7.38248
-7.40566
-7.42945
-7.4538
-7.47868
-7.50404
-7.52984
-7.55604
-7.58258
-7.60941
-7.63648
-7.66373
-7.6911
-7.71852
-7.74591
-7.77319
-7.80029
-7.82711
-7.85355
-7.87952
-7.90489
-7.92956
-7.9534
-7.97627
-7.99804
-8.01856
-8.03768
-8.05524
-8.07107
-8.085
-8.09685
-8.10645
-8.11359
-8.11809
-8.11976
-8.11838
-8.11375
-8.10568
-8.09395
-8.07836
-8.05869
-8.03474
-8.00631
-7.97318
-7.93517
-7.89207
-7.84369
-7.78985
-7.73036
-7.66506
-7.59378
-7.51636
-7.43266
-7.34253
-7.24586
-7.14252
-7.03241
-6.91544
-6.79155
-6.66066
-6.52275
-6.37777
-6.2257
-6.06654
-5.90028
-5.72696
-5.54662
-5.3593
-5.16509
-4.96406
-4.75632
-4.542
-4.32123
-4.09417
-3.86097
-3.62184
-3.37695
-3.12653
-2.8708
-2.61
-2.34437
-2.07418
-1.79971
-1.52123
-1.23905
-0.953467
-0.664798
-0.373349
-0.0794274
0.216619
0.514445
0.813735
1.11419
1.41547
1.71721
2.01907
2.32072
2.62184
2.92211
3.22119
3.51878
3.81457
4.10826
4.39957
4.68821
4.97391
5.25642
5.5355
5.81091
6.08243
6.34986
6.61301
6.87169
7.12574
7.37501
7.61935
7.85865
8.09278
8.32163
8.54511
8.76313
8.9756
9.18247
9.38372
9.57932
9.76921
9.95336
10.1318
10.3044
10.4714
10.6329
10.7889
10.9396
11.0859
11.2242
11.3679
11.4581
-7.02042
-7.02326
-7.02794
-7.03205
-7.03507
-7.03736
-7.03917
-7.04064
-7.04188
-7.04301
-7.04412
-7.04531
-7.04664
-7.0482
-7.05003
-7.0522
-7.05477
-7.05778
-7.06128
-7.06534
-7.06999
-7.07528
-7.08126
-7.08795
-7.0954
-7.10363
-7.11266
-7.12252
-7.1332
-7.14473
-7.1571
-7.17031
-7.18435
-7.19923
-7.21494
-7.23145
-7.24876
-7.26685
-7.28571
-7.30531
-7.32564
-7.34667
-7.36837
-7.39073
-7.41372
-7.43729
-7.46144
-7.4861
-7.51126
-7.53686
-7.56287
-7.58924
-7.61592
-7.64285
-7.66999
-7.69726
-7.7246
-7.75194
-7.7792
-7.80629
-7.83313
-7.85961
-7.88563
-7.91108
-7.93584
-7.95979
-7.98279
-8.0047
-8.02538
-8.04466
-8.0624
-8.07841
-8.09254
-8.10459
-8.11439
-8.12174
-8.12645
-8.12832
-8.12715
-8.12274
-8.11488
-8.10336
-8.08797
-8.06851
-8.04477
-8.01653
-7.98361
-7.9458
-7.90289
-7.85471
-7.80107
-7.74178
-7.67667
-7.60558
-7.52836
-7.44486
-7.35493
-7.25846
-7.15533
-7.04545
-6.92871
-6.80504
-6.6744
-6.53672
-6.39198
-6.24016
-6.08124
-5.91523
-5.74217
-5.56208
-5.37503
-5.18108
-4.98032
-4.77286
-4.55882
-4.33834
-4.11157
-3.87867
-3.63983
-3.39525
-3.14513
-2.8897
-2.6292
-2.36388
-2.094
-1.81983
-1.54165
-1.25977
-0.974477
-0.686095
-0.394922
-0.101283
0.194476
0.492026
0.791061
1.09128
1.39233
1.69386
1.99551
2.29698
2.59792
2.89802
3.19696
3.49442
3.7901
4.08369
4.37492
4.6635
4.94916
5.23165
5.51072
5.78615
6.0577
6.32518
6.58839
6.84715
7.1013
7.35068
7.59515
7.83458
8.06885
8.29786
8.5215
8.73968
8.95232
9.15936
9.36077
9.55652
9.74656
9.93085
10.1094
10.2822
10.4492
10.6106
10.7665
10.9166
11.0618
11.198
11.3393
11.4212
-7.01493
-7.01819
-7.02362
-7.02844
-7.03202
-7.03477
-7.03699
-7.03883
-7.04044
-7.04193
-7.04342
-7.045
-7.04674
-7.04872
-7.05101
-7.05366
-7.05673
-7.06026
-7.0643
-7.0689
-7.07409
-7.07993
-7.08643
-7.09364
-7.10158
-7.11028
-7.11974
-7.12998
-7.14102
-7.15286
-7.1655
-7.17893
-7.19316
-7.20819
-7.22399
-7.24057
-7.25792
-7.27601
-7.29484
-7.31439
-7.33465
-7.35559
-7.3772
-7.39946
-7.42233
-7.44579
-7.46982
-7.49437
-7.51943
-7.54494
-7.57086
-7.59716
-7.62379
-7.65068
-7.6778
-7.70507
-7.73243
-7.75981
-7.78712
-7.81429
-7.84122
-7.86781
-7.89395
-7.91954
-7.94446
-7.96856
-7.99173
-8.01382
-8.03468
-8.05415
-8.07207
-8.08827
-8.10258
-8.11482
-8.1248
-8.13233
-8.13721
-8.13925
-8.13824
-8.13398
-8.12626
-8.11487
-8.09961
-8.08026
-8.05662
-8.02849
-7.99565
-7.95792
-7.91509
-7.86697
-7.81338
-7.75415
-7.68909
-7.61806
-7.54088
-7.45742
-7.36754
-7.27111
-7.16803
-7.0582
-6.94152
-6.81792
-6.68734
-6.54973
-6.40506
-6.25331
-6.09447
-5.92856
-5.75558
-5.57559
-5.38864
-5.1948
-4.99416
-4.78683
-4.57292
-4.35258
-4.12596
-3.89322
-3.65455
-3.41014
-3.1602
-2.90496
-2.64465
-2.37952
-2.10984
-1.83587
-1.55791
-1.27623
-0.991154
-0.702978
-0.412014
-0.118599
0.176936
0.47427
0.773102
1.07313
1.37399
1.67533
1.9768
2.2781
2.57888
2.87882
3.17762
3.47494
3.7705
4.06399
4.35513
4.64363
4.92923
5.21167
5.4907
5.7661
6.03765
6.30513
6.56836
6.82715
7.08134
7.33078
7.57531
7.81482
8.04918
8.27828
8.50203
8.72032
8.93307
9.14023
9.34175
9.53761
9.72774
9.91213
10.0907
10.2636
10.4306
10.5918
10.7473
10.8967
11.0408
11.1749
11.3139
11.3887
-7.01128
-7.0148
-7.02068
-7.02602
-7.03008
-7.03324
-7.03584
-7.03804
-7.04001
-7.04186
-7.04372
-7.04567
-7.04781
-7.0502
-7.05292
-7.056
-7.05952
-7.0635
-7.068
-7.07307
-7.07872
-7.08501
-7.09196
-7.09959
-7.10793
-7.11699
-7.12679
-7.13735
-7.14867
-7.16075
-7.17359
-7.18721
-7.20159
-7.21673
-7.23263
-7.24927
-7.26666
-7.28478
-7.30361
-7.32316
-7.3434
-7.36432
-7.3859
-7.40812
-7.43096
-7.45439
-7.47839
-7.50293
-7.52798
-7.55349
-7.57942
-7.60574
-7.6324
-7.65935
-7.68654
-7.71389
-7.74135
-7.76884
-7.79629
-7.82359
-7.85067
-7.87743
-7.90375
-7.92952
-7.95461
-7.97891
-8.00227
-8.02455
-8.04559
-8.06524
-8.08334
-8.09972
-8.11419
-8.12658
-8.1367
-8.14436
-8.14936
-8.1515
-8.15058
-8.14639
-8.13873
-8.12739
-8.11215
-8.09282
-8.06918
-8.04104
-8.00818
-7.9704
-7.92752
-7.87935
-7.8257
-7.76639
-7.70126
-7.63013
-7.55287
-7.46932
-7.37935
-7.28284
-7.17968
-7.06976
-6.953
-6.82933
-6.69868
-6.56101
-6.41628
-6.26448
-6.10559
-5.93964
-5.76663
-5.58662
-5.39966
-5.20582
-5.00519
-4.79788
-4.58401
-4.36371
-4.13714
-3.90447
-3.66588
-3.42156
-3.17173
-2.9166
-2.65641
-2.39141
-2.12187
-1.84805
-1.57024
-1.28873
-1.00381
-0.715805
-0.425023
-0.1318
0.163544
0.46069
0.759337
1.05918
1.35986
1.66101
1.9623
2.26342
2.56403
2.86381
3.16245
3.45964
3.75506
4.04842
4.33944
4.62784
4.91334
5.1957
5.47466
5.75
6.0215
6.28895
6.55215
6.81093
7.06511
7.31456
7.55912
7.79865
8.03305
8.2622
8.486
8.70435
8.91717
9.12441
9.32601
9.52192
9.71211
9.89653
10.0752
10.2479
10.4148
10.5758
10.7309
10.8795
11.0223
11.1544
11.2914
11.36
-7.0097
-7.0133
-7.01935
-7.02501
-7.02941
-7.03291
-7.03582
-7.03834
-7.04062
-7.04279
-7.04497
-7.04726
-7.04974
-7.05248
-7.05555
-7.059
-7.06288
-7.06725
-7.07212
-7.07755
-7.08357
-7.0902
-7.09748
-7.10543
-7.11406
-7.1234
-7.13345
-7.14422
-7.15574
-7.16799
-7.18099
-7.19474
-7.20923
-7.22447
-7.24044
-7.25715
-7.2746
-7.29276
-7.31164
-7.33122
-7.35149
-7.37243
-7.39404
-7.4163
-7.43918
-7.46266
-7.48672
-7.51132
-7.53643
-7.56202
-7.58805
-7.61447
-7.64125
-7.66833
-7.69565
-7.72315
-7.75077
-7.77843
-7.80605
-7.83355
-7.86082
-7.88777
-7.91428
-7.94025
-7.96554
-7.99003
-8.01357
-8.03602
-8.05723
-8.07704
-8.09528
-8.11178
-8.12636
-8.13884
-8.14904
-8.15675
-8.16179
-8.16394
-8.16302
-8.15881
-8.15111
-8.13971
-8.1244
-8.10497
-8.08123
-8.05295
-8.01995
-7.98203
-7.93899
-7.89064
-7.8368
-7.7773
-7.71197
-7.64065
-7.56319
-7.47943
-7.38927
-7.29256
-7.1892
-7.0791
-6.96216
-6.83831
-6.7075
-6.56966
-6.42478
-6.27284
-6.11382
-5.94774
-5.77463
-5.59452
-5.40747
-5.21356
-5.01288
-4.80552
-4.59163
-4.37132
-4.14476
-3.91211
-3.67355
-3.42928
-3.17951
-2.92446
-2.66436
-2.39947
-2.13005
-1.85636
-1.57868
-1.29732
-1.01256
-0.724726
-0.434132
-0.141103
0.154047
0.450994
0.749447
1.0491
1.34957
1.65052
1.95161
2.25253
2.55295
2.85254
3.151
3.44801
3.74326
4.03647
4.32733
4.61559
4.90096
5.18319
5.46205
5.73728
6.00869
6.27605
6.53919
6.79791
7.05205
7.30146
7.54599
7.78551
8.01991
8.24906
8.47287
8.69124
8.9041
9.11137
9.313
9.50895
9.69915
9.88357
10.0622
10.2348
10.4016
10.5622
10.7167
10.8645
11.006
11.1362
11.2713
11.3347
-7.01017
-7.01371
-7.0197
-7.02547
-7.03007
-7.03379
-7.03693
-7.03968
-7.0422
-7.04462
-7.04705
-7.0496
-7.05235
-7.05537
-7.05871
-7.06244
-7.06659
-7.07122
-7.07636
-7.08205
-7.08831
-7.09518
-7.10267
-7.11082
-7.11964
-7.12915
-7.13935
-7.15028
-7.16192
-7.17429
-7.1874
-7.20124
-7.21581
-7.23113
-7.24718
-7.26396
-7.28147
-7.2997
-7.31864
-7.33829
-7.35864
-7.37967
-7.40136
-7.42371
-7.44669
-7.47027
-7.49443
-7.51914
-7.54439
-7.57012
-7.5963
-7.62289
-7.64984
-7.6771
-7.70461
-7.7323
-7.76012
-7.78797
-7.81579
-7.84349
-7.87095
-7.89809
-7.92479
-7.95094
-7.97639
-8.00103
-8.02471
-8.04728
-8.0686
-8.08849
-8.10679
-8.12333
-8.13794
-8.15042
-8.16059
-8.16826
-8.17323
-8.17529
-8.17426
-8.16992
-8.16206
-8.15048
-8.13498
-8.11535
-8.09138
-8.06286
-8.02961
-7.99142
-7.94811
-7.89948
-7.84536
-7.78557
-7.71994
-7.64832
-7.57056
-7.48652
-7.39607
-7.29909
-7.19546
-7.08509
-6.9679
-6.8438
-6.71275
-6.5747
-6.42961
-6.27747
-6.11827
-5.95202
-5.77875
-5.59851
-5.41134
-5.21733
-5.01656
-4.80915
-4.59521
-4.37488
-4.14831
-3.91567
-3.67714
-3.43292
-3.18322
-2.92825
-2.66826
-2.40349
-2.13421
-1.86067
-1.58315
-1.30196
-1.01739
-0.72976
-0.43938
-0.146565
0.148361
0.445076
0.743308
1.04273
1.34295
1.64365
1.9445
2.24517
2.54535
2.84472
3.14294
3.43973
3.73477
4.02776
4.31843
4.6065
4.89169
5.17375
5.45244
5.72753
5.9988
6.26604
6.52906
6.78767
7.04172
7.29105
7.53552
7.77498
8.00933
8.23845
8.46224
8.6806
8.89345
9.10072
9.30236
9.49831
9.6885
9.87288
10.0514
10.2239
10.3904
10.5507
10.7046
10.8515
10.9918
11.12
11.2534
11.3124
-7.0125
-7.01588
-7.02165
-7.02734
-7.03199
-7.03579
-7.03905
-7.04194
-7.04461
-7.04719
-7.04979
-7.05251
-7.05543
-7.05862
-7.06213
-7.06603
-7.07034
-7.07513
-7.08041
-7.08624
-7.09263
-7.09962
-7.10723
-7.11549
-7.12441
-7.13401
-7.14431
-7.15531
-7.16702
-7.17946
-7.19263
-7.20653
-7.22117
-7.23654
-7.25266
-7.26951
-7.28709
-7.3054
-7.32443
-7.34418
-7.36464
-7.38577
-7.40758
-7.43004
-7.45314
-7.47686
-7.50117
-7.52604
-7.55146
-7.57738
-7.60376
-7.63055
-7.6577
-7.68515
-7.71285
-7.74074
-7.76873
-7.79677
-7.82476
-7.85262
-7.88024
-7.90752
-7.93434
-7.96059
-7.98613
-8.01084
-8.03456
-8.05715
-8.07846
-8.09832
-8.11657
-8.13304
-8.14754
-8.15989
-8.16991
-8.17741
-8.18217
-8.18402
-8.18275
-8.17814
-8.17001
-8.15814
-8.14232
-8.12236
-8.09805
-8.06919
-8.03558
-7.99703
-7.95335
-7.90435
-7.84985
-7.78969
-7.7237
-7.65172
-7.5736
-7.48921
-7.39842
-7.30111
-7.19716
-7.08649
-6.969
-6.84463
-6.71332
-6.57502
-6.4297
-6.27735
-6.11796
-5.95155
-5.77813
-5.59776
-5.41048
-5.21638
-5.01555
-4.80809
-4.59413
-4.3738
-4.14726
-3.91467
-3.6762
-3.43207
-3.18247
-2.92764
-2.66779
-2.40319
-2.13408
-1.86074
-1.58344
-1.30248
-1.01816
-0.73079
-0.440673
-0.148127
0.146511
0.442937
0.740894
1.04002
1.33992
1.6403
1.94084
2.24121
2.54109
2.84016
3.13809
3.43459
3.72936
4.02208
4.31249
4.60031
4.88526
5.1671
5.44558
5.72046
5.99154
6.2586
6.52145
6.77992
7.03383
7.28304
7.52739
7.76676
8.00103
8.23008
8.4538
8.67212
8.88494
9.09218
9.2938
9.48971
9.67987
9.86418
10.0426
10.215
10.3812
10.541
10.6943
10.8403
10.9793
11.1058
11.2375
11.293
-7.01647
-7.01962
-7.02503
-7.0305
-7.03505
-7.03883
-7.04208
-7.04499
-7.04769
-7.05031
-7.05297
-7.05574
-7.05872
-7.06197
-7.06554
-7.06948
-7.07384
-7.07867
-7.084
-7.08987
-7.0963
-7.10332
-7.11097
-7.11925
-7.12819
-7.13781
-7.14812
-7.15913
-7.17087
-7.18333
-7.19652
-7.21045
-7.22513
-7.24056
-7.25673
-7.27365
-7.2913
-7.30969
-7.32881
-7.34865
-7.3692
-7.39045
-7.41238
-7.43497
-7.45822
-7.48209
-7.50658
-7.53164
-7.55724
-7.58334
-7.6099
-7.63686
-7.66418
-7.69178
-7.71962
-7.74763
-7.77574
-7.80388
-7.83195
-7.85988
-7.88754
-7.91484
-7.94167
-7.96789
-7.99337
-8.018
-8.04161
-8.06407
-8.08522
-8.10489
-8.12293
-8.13916
-8.1534
-8.16547
-8.17519
-8.18236
-8.18678
-8.18827
-8.18662
-8.18163
-8.17309
-8.16081
-8.14457
-8.12419
-8.09945
-8.07015
-8.03611
-7.99712
-7.95301
-7.90358
-7.84866
-7.78809
-7.72169
-7.64931
-7.57082
-7.48607
-7.39492
-7.29727
-7.193
-7.08203
-6.96426
-6.83962
-6.70807
-6.56954
-6.42403
-6.27149
-6.11195
-5.9454
-5.77187
-5.59141
-5.40407
-5.20993
-5.00909
-4.80164
-4.58772
-4.36746
-4.141
-3.90852
-3.67019
-3.42622
-3.1768
-2.92217
-2.66255
-2.3982
-2.12936
-1.8563
-1.5793
-1.29866
-1.01468
-0.727649
-0.437872
-0.145689
0.148568
0.444634
0.742232
1.04095
1.34045
1.64043
1.94058
2.24057
2.54006
2.83875
3.13632
3.43246
3.72687
4.01925
4.30933
4.59683
4.88148
5.16302
5.44122
5.71584
5.98667
6.2535
6.51613
6.7744
7.02812
7.27716
7.52136
7.7606
7.99474
8.22369
8.44733
8.66557
8.87833
9.08553
9.2871
9.48297
9.67306
9.85728
10.0355
10.2077
10.3736
10.533
10.6857
10.8307
10.9685
11.0934
11.2234
11.2762
-7.02183
-7.02471
-7.02968
-7.03481
-7.03914
-7.04274
-7.04584
-7.04862
-7.05121
-7.05374
-7.05631
-7.05901
-7.06191
-7.0651
-7.06861
-7.07251
-7.07683
-7.08161
-7.0869
-7.09272
-7.0991
-7.10608
-7.11367
-7.1219
-7.1308
-7.14037
-7.15065
-7.16163
-7.17334
-7.18577
-7.19895
-7.21287
-7.22755
-7.24299
-7.25918
-7.27612
-7.29382
-7.31227
-7.33145
-7.35135
-7.37198
-7.39333
-7.41538
-7.43811
-7.46149
-7.48551
-7.51012
-7.5353
-7.56101
-7.5872
-7.61384
-7.64086
-7.66822
-7.69584
-7.72368
-7.75167
-7.77974
-7.80781
-7.83581
-7.86362
-7.89115
-7.91829
-7.94492
-7.97092
-7.99616
-8.02051
-8.04382
-8.06596
-8.08676
-8.10606
-8.12371
-8.13954
-8.15336
-8.16499
-8.17425
-8.18096
-8.18492
-8.18593
-8.18379
-8.17831
-8.16928
-8.1565
-8.13977
-8.11889
-8.09366
-8.06388
-8.02936
-7.9899
-7.94533
-7.89545
-7.8401
-7.7791
-7.7123
-7.63955
-7.56069
-7.47559
-7.38412
-7.28616
-7.18161
-7.07038
-6.95237
-6.82752
-6.69578
-6.5571
-6.41144
-6.2588
-6.09918
-5.93257
-5.75901
-5.57855
-5.39124
-5.19716
-4.9964
-4.78907
-4.57528
-4.35519
-4.12892
-3.89666
-3.65858
-3.41488
-3.16576
-2.91144
-2.65217
-2.38817
-2.11972
-1.84705
-1.57048
-1.29028
-1.00674
-0.720146
-0.430831
-0.139136
0.154633
0.45025
0.74737
1.04557
1.34455
1.64404
1.94369
2.24319
2.5422
2.84041
3.13752
3.4332
3.72717
4.01913
4.3088
4.59589
4.88016
5.16134
5.43919
5.71348
5.984
6.25053
6.51289
6.7709
7.02439
7.27322
7.51722
7.75629
7.99028
8.21909
8.44261
8.66075
8.87343
9.08056
9.28207
9.47787
9.66789
9.85202
10.0301
10.2021
10.3677
10.5266
10.6786
10.8227
10.9593
11.0828
11.2109
11.2618
-7.0286
-7.0312
-7.0357
-7.04039
-7.04434
-7.04758
-7.05036
-7.05282
-7.05512
-7.05738
-7.05971
-7.0622
-7.06492
-7.06793
-7.07128
-7.07503
-7.07922
-7.08387
-7.08903
-7.09472
-7.10097
-7.10782
-7.11528
-7.12338
-7.13215
-7.1416
-7.15175
-7.16261
-7.1742
-7.18654
-7.19962
-7.21347
-7.22807
-7.24343
-7.25955
-7.27645
-7.29411
-7.31253
-7.33171
-7.35164
-7.37229
-7.39366
-7.41572
-7.43845
-7.46183
-7.48582
-7.51039
-7.5355
-7.56112
-7.5872
-7.6137
-7.64056
-7.66773
-7.69515
-7.72276
-7.75051
-7.77833
-7.80612
-7.8338
-7.86127
-7.88843
-7.91516
-7.94136
-7.9669
-7.99166
-8.01551
-8.03831
-8.05991
-8.08017
-8.09892
-8.11601
-8.13126
-8.14451
-8.15556
-8.16425
-8.17038
-8.17376
-8.1742
-8.17149
-8.16545
-8.15587
-8.14255
-8.12529
-8.10389
-8.07815
-8.04788
-8.01289
-7.97298
-7.92797
-7.87768
-7.82194
-7.76058
-7.69345
-7.62037
-7.54121
-7.45584
-7.36412
-7.26594
-7.16119
-7.04979
-6.93164
-6.80669
-6.67487
-6.53614
-6.39046
-6.23783
-6.07825
-5.91171