/*--------------------------------*- C++ -*----------------------------------*\
| =========                 |                                                 |
| \\      /  F ield         | OpenFOAM: The Open Source CFD Toolbox           |
|  \\    /   O peration     | Version:  2406                                  |
|   \\  /    A nd           | Website:  www.openfoam.com                      |
|    \\/     M anipulation  |                                                 |
\*---------------------------------------------------------------------------*/
FoamFile
{
    version     2.0;
    format      ascii;
    arch        "LSB;label=32;scalar=64";
    class       surfaceScalarField;
    location    "282";
    object      phi;
}
// * * * * * * * * * * * * * * * * * * * * * * * * * * * * * * * * * * * * * //

dimensions      [0 3 -1 0 0 0 0];

oriented        oriented;

internalField   nonuniform List<scalar> 
24170
(
3.11512e-06
7.32903e-08
3.01296e-06
1.02152e-07
2.91749e-06
9.54719e-08
2.82631e-06
9.11798e-08
2.7403e-06
8.60085e-08
2.66278e-06
7.75229e-08
2.59488e-06
6.78958e-08
2.53596e-06
5.89162e-08
2.48491e-06
5.10503e-08
2.44064e-06
4.427e-08
2.40219e-06
3.84487e-08
2.36875e-06
3.34437e-08
2.33964e-06
2.91071e-08
2.31433e-06
2.53164e-08
2.29249e-06
2.18316e-08
2.27367e-06
1.88282e-08
2.25762e-06
1.60405e-08
1.26763e-08
2.24495e-06
3.46865e-06
2.18857e-08
3.48678e-06
8.40261e-08
3.49345e-06
8.87964e-08
3.49232e-06
9.23089e-08
3.48432e-06
9.40017e-08
3.47072e-06
9.11291e-08
3.45278e-06
8.58362e-08
3.43173e-06
7.9959e-08
3.4087e-06
7.40882e-08
3.38456e-06
6.84011e-08
3.36005e-06
6.29659e-08
3.33565e-06
5.78394e-08
3.31175e-06
5.30057e-08
3.28861e-06
4.84524e-08
3.26644e-06
4.40102e-08
3.24543e-06
3.98316e-08
3.22638e-06
3.50924e-08
2.88445e-08
3.21021e-06
3.66801e-06
1.63921e-08
3.68031e-06
7.1726e-08
3.69001e-06
7.91011e-08
3.70002e-06
8.22894e-08
3.70913e-06
8.48921e-08
3.71622e-06
8.40401e-08
3.72119e-06
8.08715e-08
3.72423e-06
7.69148e-08
3.72559e-06
7.27313e-08
3.72552e-06
6.84735e-08
3.72426e-06
6.42185e-08
3.72206e-06
6.00395e-08
3.71912e-06
5.5951e-08
3.71563e-06
5.19415e-08
3.71173e-06
4.79067e-08
3.70778e-06
4.37811e-08
3.7038e-06
3.90763e-08
3.32265e-08
3.69941e-06
3.92495e-06
1.68275e-08
3.93556e-06
6.11156e-08
3.94312e-06
7.15426e-08
3.95014e-06
7.5266e-08
3.95682e-06
7.82098e-08
3.96261e-06
7.82494e-08
3.96758e-06
7.59093e-08
3.9719e-06
7.25877e-08
3.97569e-06
6.89455e-08
3.97899e-06
6.51697e-08
3.98187e-06
6.13416e-08
3.98438e-06
5.75303e-08
3.98657e-06
5.37535e-08
3.98852e-06
4.9992e-08
3.99027e-06
4.61567e-08
3.99191e-06
4.21394e-08
3.9933e-06
3.76942e-08
3.25169e-08
3.99401e-06
4.20772e-06
1.62312e-08
4.21609e-06
5.27507e-08
4.22226e-06
6.53726e-08
4.22774e-06
6.9782e-08
4.23319e-06
7.27672e-08
4.23821e-06
7.3223e-08
4.24274e-06
7.13829e-08
4.24686e-06
6.84653e-08
4.25065e-06
6.51567e-08
4.25415e-06
6.16674e-08
4.25741e-06
5.80845e-08
4.26046e-06
5.44754e-08
4.26335e-06
5.08631e-08
4.26612e-06
4.72296e-08
4.26877e-06
4.35041e-08
4.27131e-06
3.95974e-08
4.27363e-06
3.53733e-08
3.06968e-08
4.27545e-06
4.51042e-06
1.48955e-08
4.51713e-06
4.60466e-08
4.52283e-06
5.96653e-08
4.52797e-06
6.46497e-08
4.5331e-06
6.76307e-08
4.53796e-06
6.83661e-08
4.54239e-06
6.69552e-08
4.54644e-06
6.44142e-08
4.55019e-06
6.14067e-08
4.55369e-06
5.81637e-08
4.55699e-06
5.47842e-08
4.56013e-06
5.13389e-08
4.56313e-06
4.78584e-08
4.56603e-06
4.43322e-08
4.56882e-06
4.07121e-08
4.57148e-06
3.69359e-08
4.57392e-06
3.2935e-08
2.86755e-08
4.57594e-06
4.83415e-06
1.34678e-08
4.83991e-06
4.02865e-08
4.84554e-06
5.40299e-08
4.85066e-06
5.95326e-08
4.85572e-06
6.25711e-08
4.86055e-06
6.35387e-08
4.86499e-06
6.25109e-08
4.86908e-06
6.03234e-08
4.87289e-06
5.76009e-08
4.87646e-06
5.45912e-08
4.87984e-06
5.14064e-08
4.88306e-06
4.81214e-08
4.88614e-06
4.47757e-08
4.8891e-06
4.1369e-08
4.89194e-06
3.78757e-08
4.89461e-06
3.42608e-08
4.89705e-06
3.0503e-08
2.66252e-08
4.8991e-06
5.18096e-06
1.20923e-08
5.18606e-06
3.51876e-08
5.19158e-06
4.85022e-08
5.19672e-06
5.44003e-08
5.20177e-06
5.7514e-08
5.20665e-06
5.8662e-08
5.21119e-06
5.79677e-08
5.2154e-06
5.61103e-08
5.21934e-06
5.36639e-08
5.22305e-06
5.0887e-08
5.22655e-06
4.79019e-08
5.22988e-06
4.47883e-08
5.23306e-06
4.15938e-08
5.2361e-06
3.83304e-08
5.23899e-06
3.49925e-08
5.24168e-06
3.15693e-08
5.24411e-06
2.80691e-08
2.45384e-08
5.2462e-06
5.55268e-06
1.07539e-08
5.55721e-06
3.06577e-08
5.56252e-06
4.31874e-08
5.56764e-06
4.92817e-08
5.57271e-06
5.24403e-08
5.57767e-06
5.37101e-08
5.58234e-06
5.32955e-08
5.58671e-06
5.1742e-08
5.59081e-06
4.95626e-08
5.59468e-06
4.70194e-08
5.59833e-06
4.42422e-08
5.60181e-06
4.13148e-08
5.60511e-06
3.82919e-08
5.60824e-06
3.51978e-08
5.61119e-06
3.20434e-08
5.61392e-06
2.88371e-08
5.61639e-06
2.56033e-08
2.23984e-08
5.61853e-06
5.95107e-06
9.45867e-09
5.95511e-06
2.66167e-08
5.96017e-06
3.81338e-08
5.96524e-06
4.42082e-08
5.97032e-06
4.7362e-08
5.97533e-06
4.86988e-08
5.98012e-06
4.85058e-08
5.98464e-06
4.72224e-08
5.98891e-06
4.52949e-08
5.99294e-06
4.29819e-08
5.99677e-06
4.04181e-08
6.00039e-06
3.76902e-08
6.00383e-06
3.48583e-08
6.00707e-06
3.19575e-08
6.0101e-06
2.90109e-08
6.01289e-06
2.60406e-08
6.01542e-06
2.30787e-08
2.01836e-08
6.01763e-06
6.37804e-06
8.2271e-09
6.38168e-06
2.29834e-08
6.38646e-06
3.33525e-08
6.39146e-06
3.9208e-08
6.39652e-06
4.22983e-08
6.40157e-06
4.3654e-08
6.40645e-06
4.36238e-08
6.4111e-06
4.25709e-08
6.41552e-06
4.08759e-08
6.41972e-06
3.87857e-08
6.4237e-06
3.64371e-08
6.42747e-06
3.39186e-08
6.43103e-06
3.12938e-08
6.43438e-06
2.86054e-08
6.43751e-06
2.58855e-08
6.44039e-06
2.31642e-08
6.44299e-06
2.04762e-08
1.78775e-08
6.44529e-06
5.74182e-06
7.23782e-09
5.74463e-06
2.01822e-08
5.74846e-06
2.95209e-08
5.75261e-06
3.50532e-08
5.75687e-06
3.80401e-08
5.76114e-06
3.93801e-08
5.76532e-06
3.9444e-08
5.76934e-06
3.85536e-08
5.77318e-06
3.7039e-08
5.77683e-06
3.51304e-08
5.78031e-06
3.29636e-08
5.7836e-06
3.06273e-08
5.7867e-06
2.81869e-08
5.78962e-06
2.56893e-08
5.79233e-06
2.31712e-08
5.79483e-06
2.06665e-08
5.7971e-06
1.82092e-08
1.5853e-08
5.79912e-06
6.99922e-06
6.17667e-09
7.00219e-06
1.72063e-08
7.00635e-06
2.53612e-08
7.011e-06
3.04101e-08
7.01583e-06
3.32035e-08
7.02073e-06
3.44802e-08
7.02557e-06
3.46088e-08
7.03025e-06
3.38702e-08
7.03475e-06
3.2542e-08
7.03905e-06
3.08324e-08
7.04314e-06
2.88724e-08
7.04701e-06
2.67494e-08
7.05067e-06
2.45287e-08
7.0541e-06
2.22594e-08
7.05729e-06
1.99808e-08
7.06023e-06
1.77281e-08
7.06291e-06
1.55329e-08
1.34449e-08
7.06532e-06
8.53197e-06
5.05269e-09
8.53509e-06
1.40835e-08
8.53955e-06
2.09034e-08
8.54467e-06
2.52892e-08
8.5501e-06
2.77725e-08
8.55566e-06
2.89195e-08
8.56121e-06
2.90676e-08
8.56662e-06
2.84577e-08
8.57185e-06
2.73148e-08
8.57686e-06
2.58185e-08
8.58164e-06
2.40903e-08
8.58618e-06
2.22133e-08
8.59046e-06
2.02498e-08
8.59447e-06
1.82487e-08
8.5982e-06
1.6249e-08
8.60164e-06
1.42847e-08
8.60479e-06
1.23833e-08
1.05888e-08
8.60765e-06
1.04004e-05
3.87719e-09
1.04036e-05
1.08352e-08
1.04084e-05
1.61728e-08
1.0414e-05
1.97047e-08
1.042e-05
2.1737e-08
1.04262e-05
2.26667e-08
1.04325e-05
2.27734e-08
1.04387e-05
2.2255e-08
1.04448e-05
2.12863e-08
1.04506e-05
2.00125e-08
1.04561e-05
1.85389e-08
1.04614e-05
1.694e-08
1.04664e-05
1.52721e-08
1.0471e-05
1.35798e-08
1.04754e-05
1.18986e-08
1.04794e-05
1.02588e-08
1.04831e-05
8.68278e-09
7.208e-09
1.04865e-05
1.2678e-05
2.65775e-09
1.26814e-05
7.45951e-09
1.26864e-05
1.11714e-08
1.26924e-05
1.36571e-08
1.26991e-05
1.50774e-08
1.27061e-05
1.56807e-08
1.27132e-05
1.56698e-08
1.27202e-05
1.51933e-08
1.27272e-05
1.43768e-08
1.27338e-05
1.33274e-08
1.27403e-05
1.2127e-08
1.27464e-05
1.08359e-08
1.27521e-05
9.49986e-09
1.27576e-05
8.15531e-09
1.27626e-05
6.83128e-09
1.27673e-05
5.55168e-09
1.27717e-05
4.33286e-09
3.20516e-09
1.27757e-05
1.54545e-05
1.38598e-09
1.5458e-05
3.91341e-09
1.54633e-05
5.84436e-09
1.54699e-05
7.09086e-09
1.54772e-05
7.72501e-09
1.5485e-05
7.87563e-09
1.54931e-05
7.6593e-09
1.55011e-05
7.16614e-09
1.5509e-05
6.47222e-09
1.55167e-05
5.64289e-09
1.55241e-05
4.73022e-09
1.55311e-05
3.7737e-09
1.55378e-05
2.80378e-09
1.55441e-05
1.84466e-09
1.55501e-05
9.15548e-10
1.55556e-05
3.20662e-11
1.55607e-05
-7.96321e-10
-1.54687e-09
1.55655e-05
1.8839e-05
2.27199e-11
1.88428e-05
7.26201e-11
1.88487e-05
1.494e-11
1.8856e-05
-1.90499e-10
1.88642e-05
-5.25511e-10
1.8873e-05
-9.61197e-10
1.88822e-05
-1.47324e-09
1.88914e-05
-2.03946e-09
1.89005e-05
-2.63753e-09
1.89094e-05
-3.24784e-09
1.8918e-05
-3.85491e-09
1.89262e-05
-4.44648e-09
1.8934e-05
-5.01249e-09
1.89414e-05
-5.54466e-09
1.89483e-05
-6.03637e-09
1.89549e-05
-6.48209e-09
1.89609e-05
-6.87992e-09
-7.21527e-09
1.89666e-05
2.29649e-05
-1.5332e-09
2.29693e-05
-4.35694e-09
2.29761e-05
-6.75222e-09
2.29846e-05
-8.69113e-09
2.29943e-05
-1.01907e-08
2.30046e-05
-1.13372e-08
2.30154e-05
-1.222e-08
2.30262e-05
-1.28936e-08
2.3037e-05
-1.33946e-08
2.30475e-05
-1.37584e-08
2.30577e-05
-1.40154e-08
2.30674e-05
-1.41879e-08
2.30767e-05
-1.42909e-08
2.30855e-05
-1.43355e-08
2.30938e-05
-1.43303e-08
2.31016e-05
-1.42813e-08
2.31089e-05
-1.41947e-08
-1.40646e-08
2.31157e-05
1.68119e-05
-2.73664e-09
1.68153e-05
-7.76299e-09
1.68205e-05
-1.19716e-08
1.68271e-05
-1.52096e-08
1.68344e-05
-1.75207e-08
1.68422e-05
-1.91383e-08
1.68502e-05
-2.02563e-08
1.68583e-05
-2.09747e-08
1.68663e-05
-2.1371e-08
1.6874e-05
-2.1525e-08
1.68815e-05
-2.15027e-08
1.68887e-05
-2.13502e-08
1.68955e-05
-2.11009e-08
1.69019e-05
-2.07802e-08
1.6908e-05
-2.04071e-08
1.69137e-05
-1.99951e-08
1.69191e-05
-1.95553e-08
-1.90869e-08
1.69241e-05
1.46357e-05
-3.87075e-09
1.4639e-05
-1.10275e-08
1.4644e-05
-1.7016e-08
1.46502e-05
-2.14128e-08
1.46571e-05
-2.43622e-08
1.46643e-05
-2.63375e-08
1.46716e-05
-2.76139e-08
1.46789e-05
-2.83108e-08
1.46861e-05
-2.85551e-08
1.46931e-05
-2.84781e-08
1.46998e-05
-2.8175e-08
1.47061e-05
-2.77097e-08
1.47121e-05
-2.71298e-08
1.47178e-05
-2.64729e-08
1.47232e-05
-2.57667e-08
1.47282e-05
-2.50306e-08
1.4733e-05
-2.42795e-08
-2.35162e-08
1.47374e-05
1.27412e-05
-4.89599e-09
1.27444e-05
-1.42732e-08
1.27495e-05
-2.21377e-08
1.27556e-05
-2.7466e-08
1.2762e-05
-3.08324e-08
1.27688e-05
-3.30827e-08
1.27756e-05
-3.44621e-08
1.27824e-05
-3.50709e-08
1.2789e-05
-3.51102e-08
1.27952e-05
-3.47714e-08
1.28012e-05
-3.41736e-08
1.28069e-05
-3.33935e-08
1.28123e-05
-3.24918e-08
1.28173e-05
-3.15162e-08
1.28221e-05
-3.05005e-08
1.28265e-05
-2.94672e-08
1.28307e-05
-2.84314e-08
-2.73969e-08
1.28345e-05
1.10917e-05
-5.67862e-09
1.1095e-05
-1.7543e-08
1.11004e-05
-2.7544e-08
1.11064e-05
-3.3458e-08
1.11125e-05
-3.69891e-08
1.11189e-05
-3.94282e-08
1.11253e-05
-4.08342e-08
1.11315e-05
-4.1292e-08
1.11375e-05
-4.10982e-08
1.11432e-05
-4.0489e-08
1.11486e-05
-3.95937e-08
1.11537e-05
-3.85014e-08
1.11585e-05
-3.7287e-08
1.1163e-05
-3.60081e-08
1.11672e-05
-3.47033e-08
1.11711e-05
-3.33984e-08
1.11748e-05
-3.21119e-08
-3.08517e-08
1.11783e-05
9.65564e-06
-6.10493e-09
9.65905e-06
-2.09497e-08
9.66465e-06
-3.31459e-08
9.67045e-06
-3.92582e-08
9.67637e-06
-4.29115e-08
9.68244e-06
-4.54918e-08
9.68839e-06
-4.67879e-08
9.6941e-06
-4.69995e-08
9.69954e-06
-4.65409e-08
9.70471e-06
-4.56594e-08
9.70959e-06
-4.44752e-08
9.71418e-06
-4.30866e-08
9.71847e-06
-4.15802e-08
9.72248e-06
-4.00217e-08
9.72623e-06
-3.8453e-08
9.72973e-06
-3.69006e-08
9.733e-06
-3.53776e-08
-3.38779e-08
9.73603e-06
8.40494e-06
-5.69721e-09
8.40933e-06
-2.53308e-08
8.41475e-06
-3.85712e-08
8.41987e-06
-4.43757e-08
8.42545e-06
-4.84913e-08
8.43132e-06
-5.1364e-08
8.43705e-06
-5.25162e-08
8.44249e-06
-5.24377e-08
8.44763e-06
-5.16834e-08
8.45247e-06
-5.05022e-08
8.45701e-06
-4.90105e-08
8.46124e-06
-4.73174e-08
8.46518e-06
-4.55196e-08
8.46884e-06
-4.3688e-08
8.47226e-06
-4.1867e-08
8.47544e-06
-4.00856e-08
8.47843e-06
-3.83681e-08
-3.67244e-08
8.48128e-06
7.31365e-06
-2.06011e-09
7.32071e-06
-3.23948e-08
7.32652e-06
-4.4379e-08
7.33133e-06
-4.91906e-08
7.33672e-06
-5.38781e-08
7.34239e-06
-5.70334e-08
7.34793e-06
-5.80589e-08
7.35325e-06
-5.77567e-08
7.35832e-06
-5.67535e-08
7.3631e-06
-5.52816e-08
7.36756e-06
-5.34747e-08
7.37171e-06
-5.14631e-08
7.37555e-06
-4.93598e-08
7.3791e-06
-4.72405e-08
7.38239e-06
-4.5155e-08
7.38544e-06
-4.31331e-08
7.38826e-06
-4.11854e-08
-3.92611e-08
7.39079e-06
6.36047e-06
7.53668e-09
6.3703e-06
-4.22262e-08
6.37819e-06
-5.22682e-08
6.38526e-06
-5.626e-08
6.39239e-06
-6.1006e-08
6.39901e-06
-6.36542e-08
6.405e-06
-6.40549e-08
6.41056e-06
-6.33123e-08
6.41577e-06
-6.19615e-08
6.42062e-06
-6.01374e-08
6.42511e-06
-5.79658e-08
6.42924e-06
-5.55882e-08
6.43301e-06
-5.31329e-08
6.43645e-06
-5.06769e-08
6.43957e-06
-4.82781e-08
6.44241e-06
-4.59776e-08
6.44504e-06
-4.38067e-08
-4.17928e-08
6.44757e-06
5.53917e-06
1.38306e-08
5.54752e-06
-5.05791e-08
5.55587e-06
-6.0615e-08
5.56613e-06
-6.65177e-08
5.57733e-06
-7.2211e-08
5.58783e-06
-7.41552e-08
5.59705e-06
-7.32775e-08
5.60502e-06
-7.12764e-08
5.61179e-06
-6.87371e-08
5.61746e-06
-6.57999e-08
5.62208e-06
-6.25883e-08
5.62575e-06
-5.92574e-08
5.62856e-06
-5.59425e-08
5.6306e-06
-5.27182e-08
5.63196e-06
-4.9636e-08
5.63274e-06
-4.6765e-08
5.63305e-06
-4.41154e-08
-4.17797e-08
5.63304e-06
4.87157e-06
-3.01344e-08
4.88648e-06
-6.54849e-08
4.89722e-06
-7.13579e-08
4.906e-06
-7.52957e-08
4.91305e-06
-7.92593e-08
4.91733e-06
-7.84385e-08
4.91816e-06
-7.4114e-08
4.91544e-06
-6.85476e-08
4.90945e-06
-6.2756e-08
4.90073e-06
-5.70805e-08
4.88984e-06
-5.16917e-08
4.87727e-06
-4.6689e-08
4.86348e-06
-4.21538e-08
4.84884e-06
-3.80785e-08
4.83365e-06
-3.44491e-08
4.81818e-06
-3.12891e-08
4.80268e-06
-2.86136e-08
-2.69182e-08
4.78781e-06
4.17254e-06
4.10706e-06
4.0357e-06
3.9604e-06
3.88114e-06
3.80271e-06
3.72859e-06
3.66004e-06
3.59729e-06
3.54021e-06
3.48852e-06
3.44183e-06
3.39967e-06
3.36159e-06
3.32714e-06
3.29586e-06
3.26724e-06
3.24032e-06
5.79008e-09
-5.79311e-09
1.75724e-08
-1.17868e-08
3.12844e-08
-1.37163e-08
4.45682e-08
-1.32874e-08
5.60615e-08
-1.14972e-08
6.5093e-08
-9.03499e-09
7.14338e-08
-6.34476e-09
7.51123e-08
-3.68201e-09
7.62959e-08
-1.18772e-09
7.52591e-08
1.03315e-09
7.23663e-08
2.88843e-09
6.80006e-08
4.36193e-09
6.24707e-08
5.52526e-09
5.59864e-08
6.4802e-09
4.8649e-08
7.33233e-09
4.04714e-08
8.17313e-09
3.13996e-08
9.06637e-09
2.13442e-08
1.00506e-08
1.02045e-08
1.11339e-08
-2.11582e-09
1.23152e-08
-1.5839e-08
1.37173e-08
-3.11855e-08
1.53419e-08
-4.82853e-08
1.70943e-08
-6.72946e-08
1.90048e-08
-8.83723e-08
2.10722e-08
-1.11654e-07
2.32774e-08
-1.37249e-07
2.55891e-08
-1.65221e-07
2.79669e-08
-1.95589e-07
3.03624e-08
-2.28315e-07
3.27216e-08
-2.63305e-07
3.49841e-08
-3.00413e-07
3.71038e-08
-3.39467e-07
3.90482e-08
-3.80265e-07
4.07933e-08
-4.22592e-07
4.2323e-08
-4.66221e-07
4.36248e-08
-5.1092e-07
4.46957e-08
-5.56467e-07
4.55421e-08
-6.02646e-07
4.61764e-08
-6.49265e-07
4.66155e-08
-6.96147e-07
4.68791e-08
-7.43139e-07
4.69889e-08
-7.90109e-07
4.6967e-08
-8.36947e-07
4.6835e-08
-8.83563e-07
4.66141e-08
-9.29892e-07
4.63266e-08
-9.75896e-07
4.60015e-08
-1.02157e-06
4.56743e-08
-1.06694e-06
4.53662e-08
-1.11202e-06
4.50745e-08
-1.15682e-06
4.47952e-08
-1.20135e-06
4.45261e-08
-1.24561e-06
4.42655e-08
-1.28963e-06
4.40116e-08
-1.33339e-06
4.37628e-08
-1.37692e-06
4.35168e-08
-1.42019e-06
4.32714e-08
-1.46322e-06
4.30239e-08
-1.50599e-06
4.27717e-08
-1.54851e-06
4.25118e-08
-1.59075e-06
4.22414e-08
-1.63272e-06
4.19571e-08
-1.67437e-06
4.16564e-08
-1.71571e-06
4.13358e-08
-1.75671e-06
4.09928e-08
-1.79734e-06
4.06244e-08
-1.83757e-06
4.02283e-08
-1.87737e-06
3.98017e-08
-1.91672e-06
3.93426e-08
-1.95557e-06
3.88485e-08
-1.99389e-06
3.8318e-08
-2.03164e-06
3.77488e-08
-2.06879e-06
3.71398e-08
-2.10528e-06
3.64892e-08
-2.14108e-06
3.57963e-08
-2.17614e-06
3.50597e-08
-2.21042e-06
3.42789e-08
-2.24388e-06
3.34533e-08
-2.27647e-06
3.25825e-08
-2.30814e-06
3.16661e-08
-2.33884e-06
3.07042e-08
-2.36854e-06
2.96966e-08
-2.39719e-06
2.86439e-08
-2.42474e-06
2.75457e-08
-2.45115e-06
2.64032e-08
-2.47637e-06
2.52162e-08
-2.50036e-06
2.3986e-08
-2.52307e-06
2.27125e-08
-2.54447e-06
2.13967e-08
-2.5645e-06
2.00386e-08
-2.58314e-06
1.86378e-08
-2.60034e-06
1.71939e-08
-2.61604e-06
1.57057e-08
-2.63022e-06
1.4171e-08
-2.64281e-06
1.25857e-08
-2.65375e-06
1.09447e-08
-2.663e-06
9.24138e-09
-2.67047e-06
7.46561e-09
-2.67607e-06
5.60129e-09
-2.67971e-06
3.63078e-09
-2.68129e-06
1.57029e-09
-2.68083e-06
-4.64816e-10
-2.67854e-06
-2.30029e-09
-2.67457e-06
-3.97104e-09
-2.66897e-06
-5.60973e-09
-2.66174e-06
-7.24165e-09
-2.65287e-06
-8.8771e-09
-2.64236e-06
-1.05178e-08
-2.63021e-06
-1.21624e-08
-2.6164e-06
-1.381e-08
-2.60095e-06
-1.5458e-08
-2.58385e-06
-1.71052e-08
-2.5651e-06
-1.87487e-08
-2.54472e-06
-2.03873e-08
-2.52271e-06
-2.20181e-08
-2.49907e-06
-2.36399e-08
-2.47382e-06
-2.52497e-08
-2.44698e-06
-2.68462e-08
-2.41855e-06
-2.84267e-08
-2.38856e-06
-2.99901e-08
-2.35703e-06
-3.1534e-08
-2.32398e-06
-3.3057e-08
-2.28943e-06
-3.45558e-08
-2.2534e-06
-3.60289e-08
-2.21593e-06
-3.74729e-08
-2.17705e-06
-3.88869e-08
-2.13678e-06
-4.02679e-08
-2.09517e-06
-4.16155e-08
-2.05223e-06
-4.29273e-08
-2.00803e-06
-4.42037e-08
-1.96257e-06
-4.54429e-08
-1.91592e-06
-4.66446e-08
-1.8681e-06
-4.78057e-08
-1.81916e-06
-4.89279e-08
-1.76914e-06
-5.00057e-08
-1.71809e-06
-5.10334e-08
-1.66606e-06
-5.20148e-08
-1.61309e-06
-5.29534e-08
-1.55922e-06
-5.38439e-08
-1.50452e-06
-5.4684e-08
-1.44903e-06
-5.54728e-08
-1.39281e-06
-5.62105e-08
-1.3359e-06
-5.68968e-08
-1.27836e-06
-5.7531e-08
-1.22023e-06
-5.81132e-08
-1.16158e-06
-5.86429e-08
-1.10246e-06
-5.91208e-08
-1.04291e-06
-5.95466e-08
-9.82984e-07
-5.99211e-08
-9.22739e-07
-6.02446e-08
-8.62222e-07
-6.05184e-08
-8.01483e-07
-6.0743e-08
-7.40568e-07
-6.09202e-08
-6.79525e-07
-6.10507e-08
-6.18397e-07
-6.11366e-08
-5.57229e-07
-6.1179e-08
-4.96061e-07
-6.11801e-08
-4.34933e-07
-6.11411e-08
-3.73884e-07
-6.10639e-08
-3.12952e-07
-6.09484e-08
-2.52173e-07
-6.07964e-08
-1.91585e-07
-6.06066e-08
-1.31219e-07
-6.03846e-08
-7.11004e-08
-6.01384e-08
-1.13206e-08
-5.98001e-08
4.81366e-08
-5.94775e-08
1.07274e-07
-5.91571e-08
1.65981e-07
-5.87276e-08
2.24243e-07
-5.82814e-08
2.82059e-07
-5.78353e-08
3.39417e-07
-5.73759e-08
3.96275e-07
-5.68774e-08
4.52555e-07
-5.62985e-08
5.08104e-07
-5.55667e-08
5.62633e-07
-5.45472e-08
6.15569e-07
-5.29529e-08
6.65705e-07
-5.01528e-08
7.1006e-07
-4.43703e-08
7.41621e-07
-3.15744e-08
1.07759e-08
7.30834e-07
1.1363e-08
-1.71594e-08
2.32824e-08
-2.37103e-08
3.19737e-08
-2.24107e-08
3.75879e-08
-1.89038e-08
4.06851e-08
-1.45966e-08
4.16426e-08
-9.99436e-09
4.06831e-08
-5.38734e-09
3.7962e-08
-9.62868e-10
3.36067e-08
3.16533e-09
2.77019e-08
6.93593e-09
2.02595e-08
1.03285e-08
1.12552e-08
1.33641e-08
6.68215e-10
1.61099e-08
-1.1523e-08
1.86692e-08
-2.53504e-08
2.11574e-08
-4.08601e-08
2.36806e-08
-5.81216e-08
2.63255e-08
-7.72242e-08
2.91511e-08
-9.8281e-08
3.21885e-08
-1.21421e-07
3.54534e-08
-1.46666e-07
3.89606e-08
-1.74031e-07
4.27047e-08
-2.03597e-07
4.66576e-08
-2.35375e-07
5.07812e-08
-2.69325e-07
5.50198e-08
-3.05351e-07
5.93018e-08
-3.43309e-07
6.35446e-08
-3.83006e-07
6.76616e-08
-4.24219e-07
7.15722e-08
-4.66713e-07
7.52132e-08
-5.10266e-07
7.85345e-08
-5.54654e-07
8.14902e-08
-5.99659e-07
8.40502e-08
-6.45068e-07
8.62007e-08
-6.90691e-07
8.79431e-08
-7.36356e-07
8.92873e-08
-7.81917e-07
9.02547e-08
-8.27256e-07
9.08791e-08
-8.72281e-07
9.11998e-08
-9.16926e-07
9.12583e-08
-9.61145e-07
9.10964e-08
-1.00491e-06
9.07546e-08
-1.04822e-06
9.02712e-08
-1.09107e-06
8.96812e-08
-1.13347e-06
8.90167e-08
-1.17545e-06
8.83081e-08
-1.21704e-06
8.75843e-08
-1.25823e-06
8.68692e-08
-1.29904e-06
8.61751e-08
-1.33948e-06
8.5504e-08
-1.37954e-06
8.48549e-08
-1.41924e-06
8.42258e-08
-1.45859e-06
8.36135e-08
-1.49759e-06
8.30141e-08
-1.53625e-06
8.24232e-08
-1.57458e-06
8.18359e-08
-1.61255e-06
8.1247e-08
-1.65018e-06
8.0651e-08
-1.68746e-06
8.00424e-08
-1.72436e-06
7.94156e-08
-1.76089e-06
7.87649e-08
-1.79702e-06
7.80848e-08
-1.83273e-06
7.73699e-08
-1.86802e-06
7.66149e-08
-1.90284e-06
7.58151e-08
-1.93718e-06
7.49656e-08
-1.97102e-06
7.40621e-08
-2.00432e-06
7.31005e-08
-2.03706e-06
7.2077e-08
-2.0692e-06
7.09883e-08
-2.10071e-06
6.98311e-08
-2.13157e-06
6.86028e-08
-2.16173e-06
6.73009e-08
-2.19117e-06
6.59232e-08
-2.21984e-06
6.4468e-08
-2.24772e-06
6.29339e-08
-2.27476e-06
6.13199e-08
-2.30094e-06
5.9625e-08
-2.32621e-06
5.78489e-08
-2.35053e-06
5.59911e-08
-2.37388e-06
5.40518e-08
-2.39622e-06
5.20311e-08
-2.41751e-06
4.99296e-08
-2.43771e-06
4.77478e-08
-2.4568e-06
4.54868e-08
-2.47473e-06
4.31474e-08
-2.49148e-06
4.07311e-08
-2.50701e-06
3.82388e-08
-2.52128e-06
3.56718e-08
-2.53427e-06
3.30311e-08
-2.54595e-06
3.03175e-08
-2.55629e-06
2.75318e-08
-2.56526e-06
2.46748e-08
-2.57284e-06
2.17471e-08
-2.57901e-06
1.87492e-08
-2.58375e-06
1.56824e-08
-2.58706e-06
1.25486e-08
-2.58894e-06
9.35136e-09
-2.58945e-06
6.09876e-09
-2.58863e-06
2.81482e-09
-2.58661e-06
-4.54199e-10
-2.58341e-06
-3.67082e-09
-2.57886e-06
-6.85946e-09
-2.57278e-06
-1.00586e-08
-2.56512e-06
-1.32719e-08
-2.55587e-06
-1.64988e-08
-2.54501e-06
-1.974e-08
-2.53254e-06
-2.29934e-08
-2.51845e-06
-2.62559e-08
-2.50274e-06
-2.9524e-08
-2.48541e-06
-3.27936e-08
-2.46646e-06
-3.60609e-08
-2.44589e-06
-3.93216e-08
-2.42371e-06
-4.25718e-08
-2.39992e-06
-4.58071e-08
-2.37454e-06
-4.90238e-08
-2.34757e-06
-5.22174e-08
-2.31903e-06
-5.53839e-08
-2.28894e-06
-5.85193e-08
-2.25731e-06
-6.16202e-08
-2.22417e-06
-6.46825e-08
-2.18952e-06
-6.77024e-08
-2.15341e-06
-7.06752e-08
-2.11584e-06
-7.35964e-08
-2.07686e-06
-7.64613e-08
-2.03648e-06
-7.92663e-08
-1.99474e-06
-8.20072e-08
-1.95168e-06
-8.4681e-08
-1.90732e-06
-8.72842e-08
-1.8617e-06
-8.98151e-08
-1.81487e-06
-9.22716e-08
-1.76686e-06
-9.46525e-08
-1.7177e-06
-9.69554e-08
-1.66744e-06
-9.91786e-08
-1.61612e-06
-1.01313e-07
-1.5638e-06
-1.03351e-07
-1.5105e-06
-1.05297e-07
-1.45629e-06
-1.07155e-07
-1.40121e-06
-1.08917e-07
-1.3453e-06
-1.10579e-07
-1.28863e-06
-1.12139e-07
-1.23123e-06
-1.13597e-07
-1.17317e-06
-1.14951e-07
-1.1145e-06
-1.16202e-07
-1.05525e-06
-1.17349e-07
-9.95503e-07
-1.18391e-07
-9.35292e-07
-1.19329e-07
-8.74674e-07
-1.20163e-07
-8.137e-07
-1.20894e-07
-7.52422e-07
-1.21523e-07
-6.90889e-07
-1.22053e-07
-6.2915e-07
-1.22484e-07
-5.67254e-07
-1.2282e-07
-5.05246e-07
-1.23063e-07
-4.43172e-07
-1.23215e-07
-3.81075e-07
-1.23282e-07
-3.18997e-07
-1.23265e-07
-2.56976e-07
-1.23169e-07
-1.95052e-07
-1.22996e-07
-1.3326e-07
-1.22749e-07
-7.16355e-08
-1.2243e-07
-1.02076e-08
-1.22044e-07
5.1001e-08
-1.21603e-07
1.11958e-07
-1.21105e-07
1.72675e-07
-1.20527e-07
2.33059e-07
-1.19872e-07
2.93017e-07
-1.19125e-07
3.52585e-07
-1.18305e-07
4.11757e-07
-1.17464e-07
4.70519e-07
-1.16608e-07
5.28845e-07
-1.15712e-07
5.86685e-07
-1.14728e-07
6.43952e-07
-1.13576e-07
7.00492e-07
-1.12117e-07
7.56023e-07
-1.10089e-07
8.10045e-07
-1.06985e-07
8.61556e-07
-1.01673e-07
9.09e-07
-9.18243e-08
9.48892e-07
-7.14753e-08
-2.2607e-08
9.82268e-07
9.24677e-09
-2.64088e-08
1.51952e-08
-2.96619e-08
1.74019e-08
-2.46195e-08
1.68684e-08
-1.83719e-08
1.42666e-08
-1.19962e-08
9.98696e-09
-5.71606e-09
4.2294e-09
3.68871e-10
-2.92332e-09
6.18859e-09
-1.14582e-08
1.16989e-08
-2.14086e-08
1.68851e-08
-3.28416e-08
2.17602e-08
-4.58448e-08
2.6366e-08
-6.05093e-08
3.0773e-08
-7.69146e-08
3.50733e-08
-9.51254e-08
3.93669e-08
-1.15193e-07
4.37465e-08
-1.37154e-07
4.8286e-08
-1.61038e-07
5.30336e-08
-1.86861e-07
5.80099e-08
-2.14617e-07
6.32084e-08
-2.4426e-07
6.86019e-08
-2.75702e-07
7.41454e-08
-3.08822e-07
7.97767e-08
-3.43461e-07
8.54195e-08
-3.79429e-07
9.09866e-08
-4.16515e-07
9.63861e-08
-4.545e-07
1.01528e-07
-4.93173e-07
1.06333e-07
-5.32337e-07
1.10735e-07
-5.71809e-07
1.14684e-07
-6.11422e-07
1.18146e-07
-6.51037e-07
1.21103e-07
-6.90539e-07
1.23551e-07
-7.29838e-07
1.25498e-07
-7.68863e-07
1.26966e-07
-8.07572e-07
1.27995e-07
-8.4595e-07
1.28631e-07
-8.83994e-07
1.28922e-07
-9.21711e-07
1.28915e-07
-9.59113e-07
1.28659e-07
-9.96218e-07
1.282e-07
-1.03305e-06
1.27582e-07
-1.06962e-06
1.26843e-07
-1.10596e-06
1.26018e-07
-1.14208e-06
1.25138e-07
-1.178e-06
1.24229e-07
-1.21373e-06
1.23312e-07
-1.24926e-06
1.22404e-07
-1.2846e-06
1.21514e-07
-1.31974e-06
1.20644e-07
-1.35469e-06
1.19795e-07
-1.38943e-06
1.18964e-07
-1.42396e-06
1.18148e-07
-1.45829e-06
1.1734e-07
-1.4924e-06
1.16536e-07
-1.5263e-06
1.15729e-07
-1.55996e-06
1.14911e-07
-1.59339e-06
1.14075e-07
-1.62656e-06
1.13214e-07
-1.65947e-06
1.12321e-07
-1.69209e-06
1.11387e-07
-1.72441e-06
1.10405e-07
-1.75641e-06
1.09368e-07
-1.78807e-06
1.0827e-07
-1.81936e-06
1.07103e-07
-1.85026e-06
1.05862e-07
-1.88074e-06
1.0454e-07
-1.91077e-06
1.03132e-07
-1.94033e-06
1.01633e-07
-1.96938e-06
1.00039e-07
-1.9979e-06
9.83443e-08
-2.02584e-06
9.65462e-08
-2.05318e-06
9.46412e-08
-2.07989e-06
9.26263e-08
-2.10592e-06
9.04992e-08
-2.13124e-06
8.8258e-08
-2.15583e-06
8.5901e-08
-2.17963e-06
8.34272e-08
-2.20262e-06
8.08358e-08
-2.22476e-06
7.81266e-08
-2.24601e-06
7.52996e-08
-2.26633e-06
7.2355e-08
-2.2857e-06
6.92938e-08
-2.30407e-06
6.61168e-08
-2.32141e-06
6.28256e-08
-2.33768e-06
5.94216e-08
-2.35286e-06
5.5907e-08
-2.36691e-06
5.22836e-08
-2.37979e-06
4.85537e-08
-2.39148e-06
4.47197e-08
-2.40194e-06
4.0784e-08
-2.41116e-06
3.67493e-08
-2.41911e-06
3.26189e-08
-2.42576e-06
2.83964e-08
-2.4311e-06
2.40864e-08
-2.43511e-06
1.96947e-08
-2.43779e-06
1.52289e-08
-2.43914e-06
1.06988e-08
-2.43916e-06
6.11809e-09
-2.43786e-06
1.50721e-09
-2.43521e-06
-3.112e-09
-2.43114e-06
-7.73667e-09
-2.42562e-06
-1.2391e-08
-2.41859e-06
-1.70896e-08
-2.41004e-06
-2.18262e-08
-2.39995e-06
-2.65943e-08
-2.3883e-06
-3.13884e-08
-2.3751e-06
-3.62029e-08
-2.36033e-06
-4.10322e-08
-2.34398e-06
-4.58702e-08
-2.32607e-06
-5.07112e-08
-2.30658e-06
-5.55488e-08
-2.28553e-06
-6.03771e-08
-2.26291e-06
-6.51899e-08
-2.23874e-06
-6.99812e-08
-2.21302e-06
-7.47447e-08
-2.18576e-06
-7.94745e-08
-2.15698e-06
-8.41644e-08
-2.12669e-06
-8.88086e-08
-2.09491e-06
-9.34015e-08
-2.06166e-06
-9.79375e-08
-2.02695e-06
-1.0241e-07
-1.99082e-06
-1.06814e-07
-1.95328e-06
-1.11141e-07
-1.91435e-06
-1.15386e-07
-1.87408e-06
-1.19543e-07
-1.83248e-06
-1.23605e-07
-1.78959e-06
-1.27569e-07
-1.74545e-06
-1.31427e-07
-1.70008e-06
-1.35178e-07
-1.65354e-06
-1.38817e-07
-1.60584e-06
-1.42343e-07
-1.55704e-06
-1.45755e-07
-1.50716e-06
-1.49046e-07
-1.45627e-06
-1.52207e-07
-1.40438e-06
-1.55227e-07
-1.35156e-06
-1.58112e-07
-1.29785e-06
-1.60861e-07
-1.24329e-06
-1.63468e-07
-1.18793e-06
-1.65927e-07
-1.13183e-06
-1.68234e-07
-1.07504e-06
-1.70389e-07
-1.01759e-06
-1.72391e-07
-9.59553e-07
-1.74238e-07
-9.0097e-07
-1.75929e-07
-8.41895e-07
-1.77464e-07
-7.82378e-07
-1.78844e-07
-7.2247e-07
-1.80069e-07
-6.62222e-07
-1.81141e-07
-6.01685e-07
-1.8206e-07
-5.40908e-07
-1.8283e-07
-4.79939e-07
-1.83454e-07
-4.18825e-07
-1.83935e-07
-3.57611e-07
-1.84277e-07
-2.96343e-07
-1.84486e-07
-2.35062e-07
-1.84565e-07
-1.73809e-07
-1.8452e-07
-1.12623e-07
-1.84358e-07
-5.15394e-08
-1.84082e-07
9.40989e-09
-1.83701e-07
7.01906e-08
-1.83214e-07
1.3077e-07
-1.82626e-07
1.91115e-07
-1.8195e-07
2.51198e-07
-1.81191e-07
3.11012e-07
-1.80345e-07
3.70534e-07
-1.79396e-07
4.29735e-07
-1.78329e-07
4.88604e-07
-1.77177e-07
5.47117e-07
-1.75979e-07
6.05245e-07
-1.74739e-07
6.62954e-07
-1.73424e-07
7.20192e-07
-1.71969e-07
7.76873e-07
-1.70259e-07
8.32852e-07
-1.68099e-07
8.87886e-07
-1.65126e-07
9.41572e-07
-1.60674e-07
9.93276e-07
-1.5338e-07
1.04214e-06
-1.40692e-07
1.08764e-06
-1.16971e-07
-6.92582e-08
1.13428e-06
3.768e-09
-3.01791e-08
2.84366e-09
-2.87401e-08
-7.10471e-10
-2.10671e-08
-6.04072e-09
-1.30429e-08
-1.28015e-08
-5.23662e-09
-2.08258e-08
2.30725e-09
-3.00481e-08
9.5902e-09
-4.047e-08
1.66095e-08
-5.21378e-08
2.33657e-08
-6.51248e-08
2.98712e-08
-7.95201e-08
3.61545e-08
-9.54168e-08
4.22618e-08
-1.12901e-07
4.82557e-08
-1.32037e-07
5.42088e-08
-1.52866e-07
6.01947e-08
-1.75397e-07
6.62766e-08
-1.99611e-07
7.24986e-08
-2.25458e-07
7.888e-08
-2.52862e-07
8.54127e-08
-2.81717e-07
9.20626e-08
-3.11889e-07
9.87729e-08
-3.43216e-07
1.05472e-07
-3.75516e-07
1.12076e-07
-4.08596e-07
1.18498e-07
-4.42261e-07
1.2465e-07
-4.76325e-07
1.3045e-07
-5.10622e-07
1.35824e-07
-5.45008e-07
1.40718e-07
-5.79363e-07
1.45089e-07
-6.13592e-07
1.48912e-07
-6.47623e-07
1.52176e-07
-6.81407e-07
1.54886e-07
-7.14917e-07
1.5706e-07
-7.48148e-07
1.58728e-07
-7.81114e-07
1.59931e-07
-8.13838e-07
1.60717e-07
-8.46344e-07
1.61136e-07
-8.7866e-07
1.61237e-07
-9.10816e-07
1.6107e-07
-9.42838e-07
1.6068e-07
-9.74751e-07
1.60112e-07
-1.00657e-06
1.59404e-07
-1.03832e-06
1.58592e-07
-1.07001e-06
1.57706e-07
-1.10165e-06
1.56773e-07
-1.13324e-06
1.55813e-07
-1.16477e-06
1.54843e-07
-1.19624e-06
1.53876e-07
-1.22764e-06
1.52917e-07
-1.25897e-06
1.51972e-07
-1.29022e-06
1.51038e-07
-1.32137e-06
1.50114e-07
-1.35242e-06
1.49195e-07
-1.38335e-06
1.48275e-07
-1.41416e-06
1.47347e-07
-1.44484e-06
1.46403e-07
-1.47537e-06
1.45436e-07
-1.50573e-06
1.44437e-07
-1.53591e-06
1.43396e-07
-1.5659e-06
1.42305e-07
-1.59567e-06
1.41155e-07
-1.6252e-06
1.39936e-07
-1.65447e-06
1.38641e-07
-1.68346e-06
1.37261e-07
-1.71215e-06
1.35788e-07
-1.7405e-06
1.34214e-07
-1.7685e-06
1.32533e-07
-1.7961e-06
1.30736e-07
-1.82329e-06
1.28819e-07
-1.85003e-06
1.26776e-07
-1.87629e-06
1.24601e-07
-1.90203e-06
1.22289e-07
-1.92723e-06
1.19837e-07
-1.95184e-06
1.17241e-07
-1.97584e-06
1.14497e-07
-1.99919e-06
1.11604e-07
-2.02185e-06
1.0856e-07
-2.04379e-06
1.05362e-07
-2.06496e-06
1.02011e-07
-2.08534e-06
9.85055e-08
-2.10489e-06
9.48461e-08
-2.12357e-06
9.10333e-08
-2.14134e-06
8.70679e-08
-2.15818e-06
8.29517e-08
-2.17404e-06
7.86863e-08
-2.1889e-06
7.42742e-08
-2.20271e-06
6.97181e-08
-2.21545e-06
6.5021e-08
-2.22708e-06
6.01862e-08
-2.23758e-06
5.52175e-08
-2.24691e-06
5.01188e-08
-2.25506e-06
4.48947e-08
-2.26199e-06
3.95504e-08
-2.26769e-06
3.40919e-08
-2.27213e-06
2.85262e-08
-2.2753e-06
2.28613e-08
-2.27718e-06
1.71068e-08
-2.27775e-06
1.12736e-08
-2.27701e-06
5.37419e-09
-2.27493e-06
-5.77754e-10
-2.27147e-06
-6.57247e-09
-2.2666e-06
-1.26122e-08
-2.26029e-06
-1.87088e-08
-2.25251e-06
-2.4866e-08
-2.24327e-06
-3.10769e-08
-2.23253e-06
-3.73326e-08
-2.2203e-06
-4.3625e-08