/*--------------------------------*- C++ -*----------------------------------*\
| =========                 |                                                 |
| \\      /  F ield         | OpenFOAM: The Open Source CFD Toolbox           |
|  \\    /   O peration     | Version:  2406                                  |
|   \\  /    A nd           | Website:  www.openfoam.com                      |
|    \\/     M anipulation  |                                                 |
\*---------------------------------------------------------------------------*/
FoamFile
{
    version     2.0;
    format      ascii;
    arch        "LSB;label=32;scalar=64";
    class       volVectorField;
    location    "282";
    object      U;
}
// * * * * * * * * * * * * * * * * * * * * * * * * * * * * * * * * * * * * * //

dimensions      [0 1 -1 0 0 0 0];

internalField   nonuniform List<vector> 
12225
(
(9.84118 -0.956371 0)
(9.59253 -0.887947 0)
(9.31755 -0.594491 0)
(9.0147 -0.37001 0)
(8.72576 -0.22598 0)
(8.46711 -0.137913 0)
(8.23994 -0.0844119 0)
(8.04175 -0.0515915 0)
(7.86968 -0.0313179 0)
(7.72066 -0.0185892 0)
(7.5915 -0.0106486 0)
(7.47917 -0.00570698 0)
(7.38145 -0.0027054 0)
(7.29637 -0.000993783 0)
(7.22225 -0.000109843 0)
(7.16008 -0.000482121 0)
(7.10033 0.00265755 0)
(7.07199 -0.0178551 0)
(10.0722 0.255857 0)
(10.1867 0.418358 0)
(10.2285 0.384145 0)
(10.2296 0.310412 0)
(10.2114 0.245694 0)
(10.1794 0.195454 0)
(10.1334 0.157666 0)
(10.0758 0.129674 0)
(10.0105 0.108862 0)
(9.94087 0.0930987 0)
(9.86926 0.0809278 0)
(9.79744 0.0713154 0)
(9.72649 0.0635215 0)
(9.65755 0.0570699 0)
(9.59102 0.0513184 0)
(9.52784 0.046729 0)
(9.46855 0.0402494 0)
(9.41528 0.0404046 0)
(10.0032 0.0599588 0)
(10.0309 0.0482998 0)
(10.0614 0.0100097 0)
(10.0898 9.56053e-06 0)
(10.1151 0.00817776 0)
(10.1376 0.019435 0)
(10.1547 0.0290262 0)
(10.1657 0.0365102 0)
(10.1715 0.042071 0)
(10.173 0.045932 0)
(10.1711 0.0483937 0)
(10.1663 0.0497627 0)
(10.1591 0.050273 0)
(10.1502 0.0500754 0)
(10.1401 0.0492089 0)
(10.1291 0.0476741 0)
(10.1183 0.0452108 0)
(10.1062 0.040445 0)
(9.99715 0.00991911 0)
(10.009 0.026099 0)
(10.0342 0.0383115 0)
(10.0554 0.0534007 0)
(10.0721 0.0649318 0)
(10.0875 0.0702722 0)
(10.1015 0.0714283 0)
(10.1134 0.0706716 0)
(10.1236 0.069091 0)
(10.1326 0.0671199 0)
(10.1404 0.0649489 0)
(10.1473 0.062704 0)
(10.1532 0.0604064 0)
(10.1585 0.0580363 0)
(10.1631 0.0554587 0)
(10.1674 0.0525358 0)
(10.1713 0.0487894 0)
(10.1742 0.043113 0)
(9.99907 0.00681144 0)
(10.0082 0.0343085 0)
(10.0279 0.048362 0)
(10.0436 0.054906 0)
(10.0558 0.0583741 0)
(10.0678 0.0595551 0)
(10.0793 0.0593266 0)
(10.0897 0.0585831 0)
(10.0991 0.0576882 0)
(10.1077 0.0566796 0)
(10.1157 0.0555455 0)
(10.1232 0.054282 0)
(10.1302 0.0528665 0)
(10.1369 0.0512427 0)
(10.1434 0.0492934 0)
(10.1495 0.0468621 0)
(10.1553 0.0436317 0)
(10.1605 0.039292 0)
(10.0002 0.00924554 0)
(10.008 0.0334152 0)
(10.0236 0.0440845 0)
(10.0369 0.0484138 0)
(10.0478 0.0518755 0)
(10.0585 0.054273 0)
(10.069 0.0553059 0)
(10.0785 0.0554684 0)
(10.0871 0.0551548 0)
(10.0951 0.0544974 0)
(10.1026 0.0535484 0)
(10.1097 0.0523511 0)
(10.1165 0.0509169 0)
(10.1231 0.0492168 0)
(10.1294 0.0471671 0)
(10.1354 0.0446495 0)
(10.1411 0.0414986 0)
(10.1462 0.0375896 0)
(10.0003 0.0091279 0)
(10.007 0.0287634 0)
(10.0201 0.0389034 0)
(10.0322 0.0440395 0)
(10.0425 0.0481426 0)
(10.0525 0.0509459 0)
(10.0622 0.0521915 0)
(10.0711 0.0524257 0)
(10.0793 0.0521132 0)
(10.0869 0.0514298 0)
(10.094 0.0504443 0)
(10.1008 0.0492024 0)
(10.1074 0.0477197 0)
(10.1136 0.0459708 0)
(10.1196 0.0438932 0)
(10.1253 0.0414009 0)
(10.1306 0.038406 0)
(10.1354 0.0348678 0)
(10.0004 0.00814703 0)
(10.006 0.0247166 0)
(10.0171 0.0348938 0)
(10.0283 0.0405421 0)
(10.0381 0.0446214 0)
(10.0475 0.047336 0)
(10.0567 0.0486159 0)
(10.0652 0.0489316 0)
(10.073 0.0486967 0)
(10.0804 0.0480783 0)
(10.0873 0.0471444 0)
(10.0939 0.0459375 0)
(10.1002 0.0444761 0)
(10.1062 0.0427431 0)
(10.1119 0.0406983 0)
(10.1173 0.0382884 0)
(10.1223 0.035477 0)
(10.1267 0.0322792 0)
(10.0004 0.00721214 0)
(10.0052 0.0215237 0)
(10.0146 0.0312788 0)
(10.0248 0.0369611 0)
(10.0341 0.0408602 0)
(10.0429 0.0434896 0)
(10.0516 0.0448539 0)
(10.0598 0.0452954 0)
(10.0675 0.0451625 0)
(10.0746 0.0446211 0)
(10.0814 0.0437443 0)
(10.0878 0.0425771 0)
(10.0939 0.0411441 0)
(10.0997 0.039441 0)
(10.1052 0.0374484 0)
(10.1103 0.0351419 0)
(10.115 0.0325183 0)
(10.1192 0.0296224 0)
(10.0004 0.00637366 0)
(10.0045 0.0187507 0)
(10.0125 0.0277574 0)
(10.0216 0.0333001 0)
(10.0303 0.0370489 0)
(10.0387 0.0396029 0)
(10.0469 0.0410203 0)
(10.0548 0.0415522 0)
(10.0622 0.0414949 0)
(10.0692 0.0410143 0)
(10.0758 0.0401882 0)
(10.082 0.0390643 0)
(10.088 0.0376723 0)
(10.0936 0.0360201 0)
(10.0989 0.034105 0)
(10.1038 0.0319253 0)
(10.1083 0.0294966 0)
(10.1123 0.0268771 0)
(10.0004 0.00558429 0)
(10.0039 0.0162541 0)
(10.0107 0.0243955 0)
(10.0189 0.0296902 0)
(10.0269 0.0332686 0)
(10.0348 0.0357052 0)
(10.0426 0.0371139 0)
(10.0501 0.0376907 0)
(10.0573 0.0376836 0)
(10.064 0.0372506 0)
(10.0704 0.036472 0)
(10.0765 0.0353968 0)
(10.0823 0.0340588 0)
(10.0877 0.0324758 0)
(10.0928 0.0306585 0)
(10.0975 0.0286202 0)
(10.1018 0.0263871 0)
(10.1057 0.0240216 0)
(10.0003 0.00487994 0)
(10.0034 0.0141543 0)
(10.0093 0.0214712 0)
(10.0167 0.0264436 0)
(10.0242 0.029821 0)
(10.0316 0.0321131 0)
(10.039 0.0334704 0)
(10.0461 0.0340556 0)
(10.053 0.0340749 0)
(10.0595 0.0336745 0)
(10.0657 0.0329347 0)
(10.0716 0.0319059 0)
(10.0772 0.0306248 0)
(10.0825 0.0291165 0)
(10.0874 0.0274005 0)
(10.0919 0.0254991 0)
(10.0961 0.0234427 0)
(10.0999 0.0212937 0)
(10.0003 0.00421939 0)
(10.003 0.0122292 0)
(10.0082 0.0187093 0)
(10.0148 0.0232775 0)
(10.0217 0.0264148 0)
(10.0287 0.0285391 0)
(10.0357 0.0298149 0)
(10.0425 0.0303827 0)
(10.0491 0.0304123 0)
(10.0554 0.030035 0)
(10.0614 0.0293298 0)
(10.0671 0.0283478 0)
(10.0725 0.0271281 0)
(10.0775 0.0257004 0)
(10.0823 0.0240904 0)
(10.0866 0.0223259 0)
(10.0907 0.020438 0)
(10.0943 0.0184883 0)
(10.0003 0.00353124 0)
(10.0026 0.0102225 0)
(10.0071 0.015746 0)
(10.0129 0.0197717 0)
(10.0193 0.0225744 0)
(10.0258 0.0244666 0)
(10.0323 0.0256084 0)
(10.0387 0.0261205 0)
(10.045 0.0261377 0)
(10.051 0.0257726 0)
(10.0567 0.0251 0)
(10.0622 0.0241706 0)
(10.0674 0.0230243 0)
(10.0723 0.0216937 0)
(10.0768 0.0202084 0)
(10.081 0.0185987 0)
(10.0849 0.0168947 0)
(10.0884 0.0151541 0)
(10.0002 0.0028117 0)
(10.0022 0.00813024 0)
(10.0061 0.0125918 0)
(10.0112 0.0159341 0)
(10.0169 0.0182898 0)
(10.0229 0.0198697 0)
(10.0289 0.0208121 0)
(10.035 0.021218 0)
(10.0409 0.0211903 0)
(10.0466 0.0208203 0)
(10.0521 0.0201746 0)
(10.0573 0.0193015 0)
(10.0622 0.0182395 0)
(10.0669 0.0170217 0)
(10.0712 0.0156783 0)
(10.0752 0.0142392 0)
(10.0789 0.0127315 0)
(10.0824 0.0112067 0)
(10.0002 0.00206109 0)
(10.0019 0.00595536 0)
(10.0052 0.00925707 0)
(10.0097 0.0117736 0)
(10.0148 0.0135537 0)
(10.0202 0.0147239 0)
(10.0258 0.0153877 0)
(10.0314 0.0156236 0)
(10.037 0.0155065 0)
(10.0424 0.015105 0)
(10.0475 0.014474 0)
(10.0525 0.0136556 0)
(10.0572 0.0126843 0)
(10.0616 0.0115903 0)
(10.0657 0.0104012 0)
(10.0696 0.00914381 0)
(10.0732 0.00784027 0)
(10.0765 0.00653496 0)
(10.0002 0.00127792 0)
(10.0016 0.00368617 0)
(10.0045 0.00572809 0)
(10.0084 0.00727719 0)
(10.013 0.00834311 0)
(10.018 0.00899061 0)
(10.0231 0.00928393 0)
(10.0283 0.00927532 0)
(10.0335 0.00901366 0)
(10.0386 0.00854496 0)
(10.0435 0.00790845 0)
(10.0482 0.00713605 0)
(10.0526 0.00625478 0)
(10.0568 0.00528869 0)
(10.0608 0.00425968 0)
(10.0645 0.00318865 0)
(10.0679 0.0020917 0)
(10.0712 0.00100491 0)
(10.0002 0.000446775 0)
(10.0014 0.00127203 0)
(10.004 0.00193253 0)
(10.0075 0.00236439 0)
(10.0117 0.00256675 0)
(10.0163 0.00256306 0)
(10.0211 0.00237951 0)
(10.026 0.00203983 0)
(10.0309 0.00156767 0)
(10.0357 0.000985863 0)
(10.0404 0.000314689 0)
(10.0448 -0.000428328 0)
(10.0491 -0.00122749 0)
(10.0531 -0.00206825 0)
(10.0569 -0.00293703 0)
(10.0605 -0.00382071 0)
(10.0639 -0.00470999 0)
(10.067 -0.00557768 0)
(10.0001 -0.000475245 0)
(10.0014 -0.00140983 0)
(10.0038 -0.00230716 0)
(10.0071 -0.00316543 0)
(10.0112 -0.00398092 0)
(10.0156 -0.00476437 0)
(10.0202 -0.00552982 0)
(10.025 -0.00628479 0)
(10.0297 -0.00703184 0)
(10.0343 -0.0077729 0)
(10.0389 -0.00850977 0)
(10.0432 -0.00924307 0)
(10.0473 -0.009972 0)
(10.0513 -0.0106947 0)
(10.055 -0.0114085 0)
(10.0585 -0.0121099 0)
(10.0618 -0.0127975 0)
(10.0649 -0.0134541 0)
(10.0002 -0.00134842 0)
(10.0014 -0.00395913 0)
(10.004 -0.00635021 0)
(10.0075 -0.0084379 0)
(10.0117 -0.0102098 0)
(10.0163 -0.0117205 0)
(10.021 -0.0130259 0)
(10.0258 -0.0141607 0)
(10.0306 -0.015153 0)
(10.0353 -0.016032 0)
(10.0399 -0.0168228 0)
(10.0443 -0.0175436 0)
(10.0484 -0.0182073 0)
(10.0524 -0.0188238 0)
(10.0561 -0.0194006 0)
(10.0596 -0.0199424 0)
(10.0629 -0.0204541 0)
(10.066 -0.0209269 0)
(10.0002 -0.00208853 0)
(10.0016 -0.00615485 0)
(10.0043 -0.00984923 0)
(10.0083 -0.0129444 0)
(10.0129 -0.0154473 0)
(10.0177 -0.017508 0)
(10.0227 -0.0192247 0)
(10.0278 -0.0206371 0)
(10.0328 -0.0217905 0)
(10.0376 -0.0227423 0)
(10.0423 -0.0235419 0)
(10.0467 -0.0242235 0)
(10.051 -0.0248126 0)
(10.055 -0.0253291 0)
(10.0587 -0.0257882 0)
(10.0623 -0.0262009 0)
(10.0656 -0.0265764 0)
(10.0688 -0.0269115 0)
(10.0002 -0.00277265 0)
(10.0017 -0.00828839 0)
(10.0049 -0.0133162 0)
(10.0094 -0.0173281 0)
(10.0145 -0.0204052 0)
(10.0198 -0.0228793 0)
(10.0251 -0.0249039 0)
(10.0305 -0.0265191 0)
(10.0357 -0.0277857 0)
(10.0408 -0.0287818 0)
(10.0456 -0.0295698 0)
(10.0502 -0.0301945 0)
(10.0546 -0.0306924 0)
(10.0586 -0.031094 0)
(10.0625 -0.0314229 0)
(10.0661 -0.0316958 0)
(10.0694 -0.0319255 0)
(10.0726 -0.0321118 0)
(10.0001 -0.00338144 0)
(10.0017 -0.0103975 0)
(10.0055 -0.0167681 0)
(10.0109 -0.021609 0)
(10.0166 -0.02523 0)
(10.0223 -0.0280869 0)
(10.028 -0.0303072 0)
(10.0337 -0.0319756 0)
(10.0393 -0.0332356 0)
(10.0445 -0.0342054 0)
(10.0496 -0.0349503 0)
(10.0543 -0.0355145 0)
(10.0588 -0.0359385 0)
(10.063 -0.0362577 0)
(10.0669 -0.0364984 0)
(10.0706 -0.0366795 0)
(10.074 -0.0368155 0)
(10.0772 -0.0369121 0)
(10.0001 -0.00387045 0)
(10.0016 -0.0128896 0)
(10.0061 -0.0203169 0)
(10.0124 -0.0253776 0)
(10.0188 -0.0294331 0)
(10.025 -0.0328935 0)
(10.0312 -0.0354909 0)
(10.0373 -0.0372555 0)
(10.0431 -0.0384527 0)
(10.0486 -0.0392833 0)
(10.0538 -0.0398452 0)
(10.0587 -0.0402037 0)
(10.0633 -0.0404172 0)
(10.0676 -0.0405338 0)
(10.0716 -0.0405859 0)
(10.0754 -0.0405953 0)
(10.0789 -0.0405752 0)
(10.0821 -0.0405223 0)
(9.9998 -0.00354818 0)
(10.0012 -0.0165488 0)
(10.007 -0.0255181 0)
(10.0141 -0.0296901 0)
(10.0207 -0.0330092 0)
(10.0273 -0.0364617 0)
(10.0342 -0.0393908 0)
(10.0409 -0.0415646 0)
(10.0473 -0.0431424 0)
(10.0532 -0.0442711 0)
(10.0588 -0.0450312 0)
(10.064 -0.0454972 0)
(10.0689 -0.0457459 0)
(10.0734 -0.0458419 0)
(10.0776 -0.0458328 0)
(10.0815 -0.0457518 0)
(10.0852 -0.0456248 0)
(10.0886 -0.0454615 0)
(9.99829 9.26834e-07 0)
(9.99797 -0.0176183 0)
(10.0068 -0.0315009 0)
(10.0162 -0.0375844 0)
(10.0234 -0.0402797 0)
(10.0303 -0.0418287 0)
(10.0379 -0.0427822 0)
(10.0455 -0.0434743 0)
(10.0527 -0.0440717 0)
(10.0594 -0.0445822 0)
(10.0657 -0.0449728 0)
(10.0716 -0.0452549 0)
(10.0771 -0.0454506 0)
(10.0821 -0.0455878 0)
(10.0868 -0.0456809 0)
(10.0911 -0.0457461 0)
(10.0951 -0.0457885 0)
(10.0987 -0.0457762 0)
(9.99413 0.00277697 0)
(9.98996 -0.00759974 0)
(10.0032 -0.0228581 0)
(10.0185 -0.0396777 0)
(10.0302 -0.0530674 0)
(10.0403 -0.060837 0)
(10.0501 -0.0643714 0)
(10.0593 -0.0656172 0)
(10.0678 -0.0657026 0)
(10.0756 -0.0650751 0)
(10.0829 -0.0640173 0)
(10.0897 -0.062719 0)
(10.0959 -0.0613431 0)
(10.1016 -0.0599701 0)
(10.1067 -0.058665 0)
(10.1114 -0.0574571 0)
(10.1157 -0.0563722 0)
(10.1196 -0.0553627 0)
(9.9942 -0.0305071 0)
(9.99526 -0.0134565 0)
(10.0086 0.0215204 0)
(10.0272 0.0320194 0)
(10.047 0.0241458 0)
(10.0668 0.0116049 0)
(10.085 -0.000111789 0)
(10.1007 -0.0103262 0)
(10.1139 -0.0189646 0)
(10.1251 -0.0260358 0)
(10.1343 -0.0316346 0)
(10.1418 -0.036004 0)
(10.1476 -0.0393753 0)
(10.152 -0.0419658 0)
(10.155 -0.043939 0)
(10.1569 -0.0454642 0)
(10.1579 -0.0466705 0)
(10.1579 -0.0477034 0)
(10.0368 -0.209412 0)
(10.1083 -0.365899 0)
(10.1423 -0.352746 0)
(10.1567 -0.298034 0)
(10.1697 -0.247622 0)
(10.182 -0.20679 0)
(10.1884 -0.174352 0)
(10.1867 -0.148988 0)
(10.1774 -0.129269 0)
(10.1619 -0.113744 0)
(10.1414 -0.101346 0)
(10.1169 -0.0913146 0)
(10.0894 -0.0831195 0)
(10.0598 -0.0763546 0)
(10.0288 -0.0707394 0)
(9.99692 -0.066094 0)
(9.96472 -0.0622678 0)
(9.93284 -0.0595622 0)
(9.92866 0.765531 0)
(9.83924 0.742069 0)
(9.70534 0.524432 0)
(9.52636 0.348784 0)
(9.33186 0.227692 0)
(9.14063 0.146988 0)
(8.95883 0.093585 0)
(8.78893 0.0579915 0)
(8.63234 0.034127 0)
(8.48968 0.0181105 0)
(8.36032 0.00744636 0)
(8.24346 0.000468849 0)
(8.13793 -0.00407843 0)
(8.04264 -0.00693143 0)
(7.9565 -0.00860873 0)
(7.87853 -0.00954603 0)
(7.80737 -0.010027 0)
(7.74265 -0.0106375 0)
(0.0022606 -0.00399402 -6.61408e-19)
(0.0103254 -0.0112053 6.08504e-19)
(0.0214863 -0.0158964 -3.96695e-19)
(0.0337631 -0.0173963 -1.18528e-19)
(0.0450046 -0.0163506 1.74263e-19)
(0.0542477 -0.0137989 -4.02817e-20)
(0.0611424 -0.0105843 -3.62519e-20)
(0.0656293 -0.0072304 1.58259e-19)
(0.0678439 -0.00402893 -8.88012e-20)
(0.0678958 -0.00117512 3.0061e-20)
(0.0660658 0.00116673 1.2642e-20)
(0.0627892 0.00294026 -1.66939e-19)
(0.0583627 0.00422765 2.73059e-19)
(0.0530067 0.00518415 3.1612e-19)
(0.0468592 0.00597448 3.00497e-20)
(0.0399683 0.00673919 1.37023e-19)
(0.0323109 0.00758407 5.73755e-20)
(0.0238201 0.0085757 1.04588e-19)
(0.0144018 0.00972072 1.62736e-19)
(0.00392955 0.010922 1.79888e-20)
(-0.00771335 0.0119939 -5.6947e-20)
(-0.0206957 0.012947 4.1405e-19)
(-0.0351935 0.0139493 -4.62151e-20)
(-0.0513483 0.0150907 3.27451e-19)
(-0.0693066 0.0164085 -5.93282e-20)
(-0.0892048 0.0179177 1.96659e-19)
(-0.111156 0.0196184 8.6143e-20)
(-0.135246 0.0214914 4.85706e-20)
(-0.161523 0.0234925 -1.67096e-19)
(-0.189987 0.0255481 -2.61559e-20)
(-0.220564 0.0275684 -1.55292e-19)
(-0.253156 0.0294997 8.42109e-20)
(-0.287618 0.0312995 5.57283e-20)
(-0.323785 0.0329305 -6.34133e-20)
(-0.361472 0.0343624 -8.8642e-20)
(-0.400479 0.0355746 -5.4386e-21)
(-0.440601 0.0365575 2.83408e-20)
(-0.481632 0.03731 6.46413e-20)
(-0.523376 0.0378396 4.20835e-20)
(-0.565652 0.03816 9.1172e-20)
(-0.608293 0.0382893 3.39223e-20)
(-0.651151 0.0382477 8.42993e-21)
(-0.694094 0.0380574 -1.06732e-19)
(-0.737013 0.0377421 -2.09245e-20)
(-0.779828 0.0373297 4.11667e-20)
(-0.822477 0.0368548 2.02671e-21)
(-0.864904 0.0363581 9.02885e-20)
(-0.907049 0.0358772 2.79294e-20)
(-0.948969 0.0354271 1.08966e-20)
(-0.990686 0.0349974 -8.61949e-20)
(-1.0322 0.0345834 6.77871e-20)
(-1.07353 0.0341837 6.0168e-21)
(-1.11468 0.0337967 8.20322e-20)
(-1.15565 0.033421 6.32972e-20)
(-1.19645 0.0330553 2.42158e-20)
(-1.23709 0.0326979 5.57555e-20)
(-1.27757 0.0323471 7.46802e-20)
(-1.31788 0.0320006 -8.11701e-20)
(-1.35803 0.0316565 3.23123e-20)
(-1.39801 0.0313123 3.66596e-20)
(-1.43781 0.0309659 -8.76401e-20)
(-1.47742 0.0306148 -5.73507e-20)
(-1.51683 0.0302569 4.47153e-20)
(-1.55601 0.0298899 5.3606e-20)
(-1.59496 0.0295119 1.50426e-20)
(-1.63365 0.0291208 -5.78725e-20)
(-1.67205 0.0287151 6.37225e-21)
(-1.71014 0.028293 3.01861e-21)
(-1.74789 0.0278533 1.50714e-20)
(-1.78526 0.0273944 7.36007e-20)
(-1.82224 0.0269156 -3.66217e-21)
(-1.85877 0.0264156 -5.30991e-20)
(-1.89482 0.025894 5.71052e-20)
(-1.93036 0.0253498 2.07669e-20)
(-1.96535 0.0247829 -3.35237e-20)
(-1.99974 0.0241927 2.77931e-20)
(-2.0335 0.0235795 -4.26637e-21)
(-2.06658 0.0229429 5.33136e-20)
(-2.09894 0.0222834 2.44926e-20)
(-2.13053 0.0216008 -3.60677e-20)
(-2.16132 0.0208957 -1.02734e-20)
(-2.19126 0.0201683 2.0268e-21)
(-2.2203 0.0194193 4.01444e-20)
(-2.2484 0.018649 4.96795e-20)
(-2.27552 0.0178581 4.35883e-20)
(-2.30161 0.0170472 -4.40843e-20)
(-2.32663 0.016217 9.34392e-20)
(-2.35054 0.0153675 -3.6956e-21)
(-2.3733 0.0144992 6.64523e-20)
(-2.39485 0.0136116 -9.3739e-20)
(-2.41517 0.012704 -5.00577e-20)
(-2.43421 0.0117749 4.18878e-20)
(-2.45192 0.0108219 6.06164e-20)
(-2.46827 0.009841 -9.14915e-21)
(-2.48319 0.00882637 -5.63806e-20)
(-2.49664 0.00777014 -5.56785e-20)
(-2.50856 0.00666227 5.67857e-20)
(-2.51888 0.00549223 -3.04082e-20)
(-2.52751 0.00425701 -7.20774e-20)
(-2.53439 0.00297942 -3.1203e-20)
(-2.53941 0.00172475 7.64921e-20)
(-2.54245 0.000582265 3.81573e-20)
(-2.54356 -0.000401693 5.66238e-20)
(-2.54318 -0.00129316 -3.43604e-20)
(-2.54123 -0.0021644 1.08574e-20)
(-2.53774 -0.00302578 3.73955e-21)
(-2.53271 -0.00388267 -6.79317e-21)
(-2.52612 -0.00473566 -1.45716e-20)
(-2.51798 -0.0055844 -2.16463e-20)
(-2.50826 -0.00642853 -3.47991e-20)
(-2.49696 -0.00726707 -4.70594e-20)
(-2.48408 -0.00809957 2.45584e-20)
(-2.46961 -0.00892495 -3.37413e-20)
(-2.45356 -0.00974282 -3.24349e-20)
(-2.43591 -0.0105521 5.6071e-20)
(-2.41669 -0.0113525 -3.24307e-21)
(-2.39588 -0.0121429 -3.43881e-20)
(-2.3735 -0.0129231 -3.49088e-20)
(-2.34955 -0.0136922 3.12751e-20)
(-2.32405 -0.0144499 2.26167e-21)
(-2.29701 -0.0151956 8.73541e-21)
(-2.26844 -0.0159288 -5.46761e-21)
(-2.23836 -0.0166484 -1.5154e-20)
(-2.20678 -0.0173541 1.20241e-20)
(-2.17373 -0.0180448 -9.81907e-21)
(-2.13922 -0.0187207 8.04877e-21)
(-2.10328 -0.0193809 9.59355e-21)
(-2.06594 -0.020026 -2.85852e-21)
(-2.02722 -0.0206555 6.11638e-21)
(-1.98716 -0.0212702 -3.46474e-21)
(-1.94578 -0.0218701 2.70883e-21)
(-1.90311 -0.0224556 3.72832e-22)
(-1.85918 -0.023024 1.38569e-20)
(-1.81403 -0.0235764 -6.14219e-21)
(-1.7677 -0.0241119 2.38339e-21)
(-1.72022 -0.0246314 -1.84537e-20)
(-1.67163 -0.0251373 -3.35019e-20)
(-1.62198 -0.0256273 3.87291e-20)
(-1.5713 -0.0261005 1.92293e-20)
(-1.51964 -0.0265584 -5.01302e-21)
(-1.46704 -0.0269998 9.85154e-20)
(-1.41355 -0.0274258 8.93225e-20)
(-1.35922 -0.0278365 -4.8198e-20)
(-1.30409 -0.0282323 -5.18715e-20)
(-1.2482 -0.0286133 -9.24958e-20)
(-1.19161 -0.02898 -1.34257e-19)
(-1.13437 -0.029333 -1.00937e-19)
(-1.07651 -0.0296726 -1.63e-19)
(-1.01809 -0.0299997 8.04461e-20)
(-0.959156 -0.0303148 7.47691e-20)
(-0.899752 -0.0306188 1.28949e-19)
(-0.839924 -0.0309127 9.58151e-20)
(-0.779716 -0.0311974 2.72436e-19)
(-0.719174 -0.0314741 1.84623e-20)
(-0.65834 -0.031744 1.18563e-20)
(-0.597253 -0.0320082 -2.07162e-19)
(-0.535955 -0.0322684 3.28911e-19)
(-0.474483 -0.0325258 -1.96178e-19)
(-0.412874 -0.0327815 2.73947e-20)
(-0.351163 -0.0330356 9.95786e-20)
(-0.289386 -0.0332894 3.65299e-20)
(-0.227579 -0.0335457 9.35538e-20)
(-0.165773 -0.0338233 4.45559e-19)
(-0.104002 -0.0341236 2.21005e-19)
(-0.042335 -0.0343717 1.05067e-19)
(0.0192149 -0.0341007 1.4382e-19)
(0.0806317 -0.0332479 3.74287e-19)
(0.141893 -0.0323107 -1.50175e-20)
(0.202947 -0.0314186 3.62967e-19)
(0.263769 -0.0305738 4.80974e-19)
(0.324352 -0.0297647 4.29865e-19)
(0.384673 -0.0289761 -1.43784e-20)
(0.444675 -0.0281871 3.4196e-20)
(0.504236 -0.0273657 -7.42613e-20)
(0.563173 -0.0264543 -8.55028e-19)
(0.620909 -0.0253426 3.88515e-19)
(0.677165 -0.0237721 2.62852e-19)
(0.727382 -0.0211068 -4.92868e-19)
(0.777007 -0.0160267 -4.61387e-19)
(0.776914 0.00068724 6.86758e-19)
(0.00522278 -0.0220615 1.48834e-18)
(0.0164252 -0.0357339 -6.40209e-19)
(0.0251671 -0.0369763 -1.82422e-19)
(0.0312771 -0.0332419 3.50422e-19)
(0.0351452 -0.0272849 6.64137e-20)
(0.0369634 -0.0203827 3.95468e-20)
(0.0369599 -0.0133027 -3.72701e-20)
(0.0353166 -0.00651193 -1.86468e-19)
(0.0321546 -0.000277707 -1.31489e-20)
(0.0276052 0.00523451 -1.98893e-19)
(0.0216957 0.00993372 1.20347e-20)
(0.0143843 0.0138502 -3.32552e-21)
(0.00566126 0.0171367 8.26922e-20)
(-0.00448858 0.0200003 1.20101e-20)
(-0.0160881 0.0226603 -2.66062e-20)
(-0.0291715 0.0253097 -2.17708e-19)
(-0.0437918 0.0280916 -4.52838e-20)
(-0.0600269 0.0310965 1.88595e-19)
(-0.07798 0.0343688 -2.09233e-19)
(-0.0977606 0.0379241 5.58053e-20)
(-0.11943 0.0417554 4.82151e-21)
(-0.143013 0.0458537 9.80401e-20)
(-0.168565 0.0502213 1.0779e-19)
(-0.19613 0.0548387 8.65059e-20)
(-0.2257 0.0596498 1.06091e-19)
(-0.257218 0.0645659 -5.67194e-20)
(-0.290579 0.0694764 1.32454e-20)
(-0.325636 0.0742631 1.56619e-20)
(-0.3622 0.0788199 -5.63249e-20)
(-0.400055 0.0830703 -3.70145e-20)
(-0.439004 0.0869408 -5.67705e-20)
(-0.478852 0.0903559 -1.68214e-20)
(-0.519397 0.0932722 -1.20301e-19)
(-0.560444 0.0956711 4.77129e-20)
(-0.601815 0.0975526 -6.60184e-20)
(-0.643344 0.0989184 7.62165e-20)
(-0.684888 0.0997914 -7.05551e-20)
(-0.726329 0.100215 1.8983e-20)
(-0.767572 0.10024 4.68494e-20)
(-0.808548 0.0999192 -3.56867e-20)
(-0.849207 0.0993072 2.91021e-20)
(-0.889517 0.0984568 -1.16486e-20)
(-0.929462 0.0974175 -4.41827e-20)
(-0.96904 0.0962343 -1.27773e-19)
(-1.00826 0.0949489 -8.98558e-20)
(-1.04714 0.0936021 1.04631e-21)
(-1.08571 0.0922371 -1.09107e-19)
(-1.12397 0.0908942 -2.94473e-20)
(-1.16193 0.0895947 1.03207e-19)
(-1.1996 0.0883382 1.56556e-19)
(-1.23699 0.0871204 3.67838e-20)
(-1.2741 0.0859379 -1.58907e-20)
(-1.31093 0.0847867 -1.66692e-20)
(-1.34751 0.0836626 -5.32053e-20)
(-1.38383 0.082561 -4.07869e-20)
(-1.41989 0.0814771 -1.06635e-19)
(-1.4557 0.0804058 -1.25176e-19)
(-1.49125 0.0793419 -2.7713e-20)
(-1.52653 0.0782804 1.84571e-20)
(-1.56154 0.0772159 -9.40617e-20)
(-1.59627 0.0761434 7.20303e-20)
(-1.6307 0.0750579 -3.06351e-20)
(-1.66482 0.0739549 -1.23107e-19)
(-1.6986 0.0728298 9.30406e-21)
(-1.73203 0.0716788 8.87428e-20)
(-1.7651 0.070498 -3.39933e-20)
(-1.79776 0.0692844 3.75441e-21)
(-1.83001 0.0680347 -7.87736e-20)
(-1.8618 0.0667467 2.70577e-20)
(-1.89313 0.0654179 -4.62078e-20)
(-1.92394 0.0640469 8.28106e-22)
(-1.95423 0.0626319 -5.66859e-20)
(-1.98394 0.061172 1.77076e-21)
(-2.01306 0.0596663 -3.35351e-20)
(-2.04155 0.0581146 4.43352e-20)
(-2.06937 0.0565165 -7.63256e-20)
(-2.0965 0.0548724 9.91736e-21)
(-2.12289 0.0531826 -7.67974e-20)
(-2.14851 0.0514481 2.99447e-21)
(-2.17334 0.0496695 6.03394e-20)
(-2.19732 0.0478481 1.18142e-20)
(-2.22043 0.045985 -3.52129e-20)
(-2.24264 0.0440819 -5.25681e-20)
(-2.2639 0.04214 2.99985e-20)
(-2.28418 0.0401613 8.44049e-20)
(-2.30346 0.0381474 -2.66164e-20)
(-2.32169 0.0361005 -9.46543e-22)
(-2.33885 0.0340221 -2.22964e-21)
(-2.35489 0.031914 5.33135e-20)
(-2.36979 0.0297776 1.86524e-19)
(-2.38351 0.0276141 4.04742e-20)
(-2.39603 0.0254243 7.55422e-20)
(-2.40732 0.023209 -1.63235e-19)
(-2.41734 0.0209683 -7.8157e-20)
(-2.42608 0.0187018 5.06393e-20)
(-2.43351 0.0164088 1.02495e-19)
(-2.43963 0.0140873 -5.60589e-20)
(-2.44443 0.0117326 -2.26668e-20)
(-2.44792 0.00933775 -3.8838e-20)
(-2.45014 0.00690527 5.60843e-20)
(-2.45118 0.00447173 -7.73747e-20)
(-2.45115 0.00211543 -5.77562e-20)
(-2.45002 -0.000100398 -3.69367e-20)
(-2.44746 -0.00221703 1.21094e-19)
(-2.44344 -0.00429618 -1.35382e-20)
(-2.43791 -0.00634898 8.38536e-21)
(-2.43087 -0.00838136 4.32246e-20)
(-2.42229 -0.0103936 9.20853e-20)
(-2.41217 -0.0123842 -1.24453e-20)
(-2.40051 -0.0143516 -3.45029e-20)
(-2.38728 -0.0162935 2.63295e-21)
(-2.37249 -0.0182081 -6.17624e-20)
(-2.35614 -0.020093 6.5782e-20)
(-2.33822 -0.0219464 2.4136e-20)
(-2.31873 -0.0237661 1.87524e-20)
(-2.29768 -0.0255505 4.51981e-20)
(-2.27507 -0.0272974 5.2792e-20)
(-2.25091 -0.0290053 -2.69257e-20)
(-2.2252 -0.0306723 1.69421e-20)
(-2.19796 -0.0322974 2.34388e-20)
(-2.16919 -0.0338789 2.71401e-20)
(-2.13892 -0.0354156 -2.98796e-21)
(-2.10715 -0.0369053 -1.17265e-21)
(-2.0739 -0.0383466 -1.83252e-20)
(-2.0392 -0.0397374 -1.57283e-20)
(-2.00306 -0.0410771 -1.50193e-20)
(-1.96551 -0.042364 1.31063e-20)
(-1.92657 -0.0435978 -1.59373e-21)
(-1.88628 -0.0447777 -4.80776e-21)
(-1.84464 -0.0459041 -8.85523e-22)
(-1.80171 -0.0469769 -9.90556e-22)
(-1.75751 -0.0479967 1.42029e-21)
(-1.71207 -0.0489632 1.89796e-21)
(-1.66542 -0.0498774 -2.50096e-21)
(-1.6176 -0.0507346 -3.5044e-21)
(-1.56865 -0.0515299 -4.58624e-21)
(-1.51861 -0.0522689 9.00494e-21)
(-1.46751 -0.052957 -5.65886e-20)
(-1.4154 -0.05359 6.76488e-22)
(-1.36232 -0.0541656 4.60881e-20)
(-1.30831 -0.0546851 -2.91772e-20)
(-1.25342 -0.0551497 3.81794e-20)
(-1.19771 -0.05556 1.6917e-20)
(-1.1412 -0.0559171 -3.37287e-20)
(-1.08395 -0.0562218 -1.07286e-20)
(-1.02601 -0.0564753 -5.38167e-20)
(-0.967421 -0.0566788 -3.32017e-20)
(-0.908233 -0.0568339 7.14966e-20)
(-0.848494 -0.0569419 1.14897e-19)
(-0.78825 -0.0570048 -1.57309e-19)
(-0.727548 -0.0570243 4.79798e-20)
(-0.666434 -0.0570025 9.42881e-21)
(-0.604952 -0.0569417 -2.65187e-19)
(-0.543148 -0.0568442 6.50846e-21)
(-0.481062 -0.0567122 4.09818e-21)
(-0.418736 -0.0565486 -8.59117e-20)
(-0.356211 -0.0563555 1.08998e-19)
(-0.293524 -0.0561356 1.54147e-19)
(-0.230711 -0.0558909 1.60784e-19)
(-0.167808 -0.0556226 1.43284e-19)
(-0.104847 -0.0553309 -2.13916e-19)
(-0.0418669 -0.0550177 2.73823e-20)
(0.0211186 -0.0546828 -5.87465e-20)
(0.0840861 -0.0543254 1.5552e-19)
(0.147028 -0.0539397 -4.65209e-20)
(0.209902 -0.0533834 1.85712e-19)
(0.272596 -0.0526083 -1.82808e-19)
(0.335095 -0.0517681 -2.80543e-19)
(0.397422 -0.0509363 -4.24306e-19)
(0.459569 -0.0501216 -1.98563e-19)
(0.521516 -0.0493131 -8.9153e-20)
(0.583228 -0.0484902 4.24426e-20)
(0.644641 -0.0476191 2.57175e-20)
(0.705632 -0.0466435 -2.97813e-19)
(0.76601 -0.0454562 -2.76131e-19)
(0.825301 -0.0438558 3.81069e-19)
(0.883127 -0.0413457 4.65185e-19)
(0.936702 -0.0369877 4.35958e-19)
(0.989093 -0.0277773 2.19607e-19)
(1.01873 -0.00535712 -4.71537e-19)
(0.00487664 -0.0434544 1.62116e-19)
(0.011909 -0.0536141 7.4739e-19)
(0.0150476 -0.046773 4.79206e-19)
(0.0155741 -0.0368424 -3.25612e-19)
(0.014157 -0.0263918 7.83925e-20)
(0.011093 -0.0160592 -4.85897e-20)
(0.00662426 -0.00614381 -2.48113e-20)
(0.000881411 0.00316355 2.20268e-19)
(-0.0060896 0.0117503 1.90156e-19)
(-0.0143036 0.0195814 1.68553e-19)
(-0.0238102 0.0266823 7.92552e-20)
(-0.0346841 0.0331304 7.74914e-20)
(-0.0470088 0.0390584 -2.50552e-19)
(-0.060864 0.0446431 -1.55573e-19)
(-0.0763165 0.0500767 5.5145e-20)
(-0.0934199 0.0555368 -1.16175e-19)
(-0.112216 0.0611652 1.1009e-19)
(-0.132735 0.0670569 1.54777e-20)
(-0.155004 0.0732589 1.49496e-19)
(-0.179033 0.0797782 1.25244e-19)
(-0.204807 0.0866023 -1.12986e-19)
(-0.232265 0.093688 -2.86589e-19)
(-0.261316 0.100952 -4.81989e-20)
(-0.291837 0.108286 -2.87308e-19)
(-0.323673 0.115561 5.92395e-20)
(-0.356644 0.122637 8.55681e-20)
(-0.390556 0.129371 -3.1657e-20)
(-0.425216 0.135631 1.0069e-19)
(-0.460438 0.141302 5.03103e-20)
(-0.496054 0.146298 1.036e-19)
(-0.531911 0.150567 -4.84667e-20)
(-0.567865 0.154078 -2.9077e-20)
(-0.603805 0.156821 1.39133e-20)
(-0.639644 0.158806 -1.64647e-20)
(-0.675304 0.160069 -2.38679e-20)
(-0.710731 0.16067 -1.54346e-21)
(-0.745907 0.160676 -8.36913e-20)
(-0.780825 0.160163 2.9707e-20)
(-0.815486 0.159206 -7.28277e-20)
(-0.8499 0.157884 -2.3711e-20)
(-0.884081 0.15627 1.9465e-20)
(-0.918047 0.154434 -1.83635e-20)
(-0.951816 0.152437 -3.57303e-20)
(-0.985409 0.150333 9.76392e-20)
(-1.01884 0.148169 1.07548e-19)
(-1.05214 0.145985 -7.1497e-20)
(-1.0853 0.143815 3.2336e-20)
(-1.11834 0.141684 -3.73152e-20)
(-1.15125 0.139604 -6.58281e-20)
(-1.18402 0.137579 -3.20776e-20)
(-1.21666 0.135608 -3.43326e-20)
(-1.24917 0.133687 6.44033e-20)
(-1.28154 0.13181 1.07881e-20)
(-1.31377 0.129971 5.02922e-20)
(-1.34587 0.128163 5.98615e-21)
(-1.37781 0.126377 7.27404e-21)
(-1.4096 0.124606 2.9486e-20)
(-1.44123 0.122841 4.57998e-20)
(-1.47268 0.121076 -7.98462e-21)
(-1.50395 0.1193 1.50241e-19)
(-1.53502 0.117509 1.08933e-19)
(-1.56587 0.115693 2.57651e-20)
(-1.59649 0.113847 5.77078e-20)
(-1.62685 0.111965 -1.34506e-19)
(-1.65695 0.11004 1.97137e-20)
(-1.68675 0.108068 7.88704e-20)
(-1.71623 0.106044 -1.26909e-19)
(-1.74536 0.103964 -5.75792e-20)
(-1.77413 0.101824 3.8832e-20)
(-1.80249 0.099623 3.0527e-20)
(-1.83043 0.0973572 -6.49203e-20)
(-1.85791 0.0950252 1.12444e-19)
(-1.88491 0.0926256 1.3114e-20)
(-1.91138 0.0901577 4.06729e-20)
(-1.9373 0.0876212 -1.33609e-19)
(-1.96264 0.085016 1.29531e-19)
(-1.98735 0.082343 2.72242e-20)
(-2.01142 0.0796028 -5.61968e-20)
(-2.03479 0.0767969 -1.02442e-19)
(-2.05744 0.0739267 -5.08799e-20)
(-2.07933 0.0709942 8.16325e-21)
(-2.10043 0.0680016 2.19975e-20)
(-2.1207 0.0649511 -1.03739e-20)
(-2.14011 0.0618454 -7.76144e-20)
(-2.15862 0.0586872 -2.13488e-20)
(-2.1762 0.0554795 -2.35164e-20)
(-2.19281 0.0522254 1.40737e-20)
(-2.20842 0.0489279 -4.8764e-20)
(-2.223 0.04559 -6.99304e-20)
(-2.23652 0.0422146 -8.59994e-20)
(-2.24894 0.0388047 2.77099e-20)
(-2.26024 0.0353632 -1.01142e-19)
(-2.2704 0.0318933 9.8154e-20)
(-2.27937 0.0283983 8.49789e-21)
(-2.28716 0.0248823 -2.30434e-20)
(-2.29373 0.0213505 -4.27775e-20)
(-2.29907 0.0178101 1.47255e-20)
(-2.30319 0.0142714 7.0696e-20)
(-2.30607 0.0107488 5.79612e-20)
(-2.30772 0.00726288 2.55676e-20)
(-2.30813 0.00383457 3.0517e-20)
(-2.30725 0.000465708 1.51221e-20)
(-2.30504 -0.00287192 1.38978e-20)
(-2.30142 -0.00619296 -1.90947e-19)
(-2.29637 -0.00948906 3.72481e-20)
(-2.28986 -0.0127567 3.34345e-20)
(-2.28189 -0.0159936 -6.43507e-20)
(-2.27243 -0.0191965 5.42229e-20)
(-2.26148 -0.0223624 -1.78385e-20)
(-2.24902 -0.0254876 7.62494e-20)
(-2.23505 -0.0285686 5.47393e-20)
(-2.21956 -0.0316019 3.79084e-20)
(-2.20256 -0.0345841 -2.45466e-20)
(-2.18403 -0.0375119 2.92125e-20)
(-2.16397 -0.040382 1.85271e-20)
(-2.1424 -0.0431914 -2.1619e-20)
(-2.11931 -0.0459371 -3.1692e-20)
(-2.09471 -0.0486161 9.65179e-20)
(-2.06861 -0.0512258 1.40976e-20)
(-2.04102 -0.053764 -3.0889e-20)
(-2.01194 -0.0562283 -7.4698e-20)
(-1.9814 -0.0586163 -9.09615e-21)
(-1.9494 -0.0609253 -6.4141e-22)
(-1.91597 -0.0631525 -2.2422e-20)
(-1.88111 -0.0652955 1.93594e-21)
(-1.84486 -0.0673525 1.47115e-20)
(-1.80723 -0.0693214 -3.57909e-20)
(-1.76825 -0.0712011 1.0131e-20)
(-1.72794 -0.0729902 3.13538e-21)
(-1.68634 -0.0746886 8.42908e-21)
(-1.64347 -0.0762964 -1.07015e-21)
(-1.59936 -0.0778145 -1.1767e-21)
(-1.55404 -0.0792429 -1.1658e-20)
(-1.50754 -0.0805809 -1.84885e-21)
(-1.45991 -0.0818246 1.3574e-20)
(-1.41117 -0.0829699 -4.43132e-21)
(-1.36136 -0.0840205 -5.22141e-21)
(-1.31053 -0.0849806 1.7464e-20)
(-1.25871 -0.0858483 2.54341e-20)
(-1.20594 -0.086621 -1.96277e-21)
(-1.15227 -0.0872995 1.30168e-20)