/*--------------------------------*- C++ -*----------------------------------*\
| =========                 |                                                 |
| \\      /  F ield         | OpenFOAM: The Open Source CFD Toolbox           |
|  \\    /   O peration     | Version:  2406                                  |
|   \\  /    A nd           | Website:  www.openfoam.com                      |
|    \\/     M anipulation  |                                                 |
\*---------------------------------------------------------------------------*/
FoamFile
{
    version     2.0;
    format      ascii;
    arch        "LSB;label=32;scalar=64";
    class       volScalarField;
    location    "100";
    object      epsilon;
}
// * * * * * * * * * * * * * * * * * * * * * * * * * * * * * * * * * * * * * //

dimensions      [0 2 -3 0 0 0 0];

internalField   nonuniform List<scalar> 
12225
(
1085.66
2467.82
3645.44
4414.89
4812.32
4981.02
4972.85
4933.27
4839.02
4730.13
4622.6
4519.94
4428.65
4343.71
4273.58
4204.71
4157.43
4095.1
81.2232
262.578
438.469
584.483
690.98
762.76
804.474
829.671
846.345
856.369
865.886
872.931
881.922
889.648
898.936
907.848
915.951
929.186
20.5692
51.189
83.4467
112.541
136.885
156.174
170.087
179.838
186.277
190.679
193.338
195.445
196.636
198.121
198.931
200.625
200.719
205.685
14.755
21.8688
30.0147
38.5049
46.2061
53.0326
58.6053
63.2445
66.7288
69.6104
71.5724
73.2742
74.2612
75.2475
75.662
76.2526
76.1719
77.3894
14.3603
16.333
18.4542
21.4883
24.4357
27.2598
29.7313
31.9761
33.8098
35.4658
36.7301
37.9062
38.7207
39.5443
40.0203
40.6072
40.7808
41.4111
14.6445
14.9538
15.4268
16.4564
17.6079
18.8278
19.9679
21.0738
22.03
22.9425
23.6829
24.4067
24.945
25.5141
25.8753
26.3314
26.5251
26.9686
14.7183
14.6386
14.6736
14.8756
15.2172
15.6829
16.1621
16.6711
17.1367
17.6083
18.0072
18.4166
18.7331
19.0814
19.3132
19.6131
19.7546
20.0641
14.7545
14.5907
14.4691
14.4209
14.4417
14.5151
14.6474
14.8241
15.0016
15.2013
15.3779
15.5742
15.7302
15.9118
16.0363
16.2025
16.286
16.4682
14.7641
14.5919
14.4345
14.3029
14.2031
14.1371
14.0973
14.0987
14.1106
14.1412
14.1779
14.234
14.2784
14.3414
14.3838
14.4476
14.4793
14.5588
14.7656
14.5942
14.432
14.2829
14.1466
14.0296
13.9257
13.8438
13.7745
13.7225
13.6772
13.6482
13.6203
13.6061
13.5889
13.5832
13.5714
13.5808
14.7657
14.5945
14.4323
14.2806
14.137
14.0052
13.8817
13.7707
13.6681
13.578
13.4941
13.4222
13.354
13.2974
13.2409
13.1975
13.1475
13.1179
14.7657
14.5943
14.4322
14.2801
14.1358
14.0008
13.8729
13.7541
13.6419
13.5388
13.4413
13.3527
13.2681
13.1927
13.119
13.0554
12.9901
12.9374
14.7657
14.5941
14.4321
14.2797
14.1353
13.9995
13.8708
13.7498
13.6349
13.5274
13.4251
13.3298
13.2388
13.1547
13.0737
12.9996
12.9273
12.8622
14.7657
14.594
14.4319
14.2792
14.1349
13.9988
13.8699
13.7482
13.6328
13.5239
13.4203
13.3227
13.2297
13.1422
13.0586
12.9801
12.9048
12.8343
14.7657
14.5938
14.4317
14.2789
14.1345
13.9981
13.8692
13.7472
13.6317
13.5223
13.4185
13.3202
13.2268
13.1382
13.054
12.9741
12.8979
12.8257
14.7657
14.5937
14.4316
14.2786
14.1341
13.9976
13.8685
13.7464
13.6307
13.5212
13.4172
13.3187
13.2251
13.1363
13.0518
12.9715
12.8951
12.8225
14.7657
14.5937
14.4315
14.2784
14.1338
13.9972
13.868
13.7458
13.63
13.5203
13.4162
13.3175
13.2238
13.1348
13.0502
12.9698
12.8932
12.8204
14.7657
14.5937
14.4314
14.2783
14.1336
13.9969
13.8677
13.7453
13.6294
13.5196
13.4155
13.3167
13.2228
13.1337
13.049
12.9685
12.8918
12.8189
14.7657
14.5937
14.4314
14.2782
14.1336
13.9968
13.8675
13.7451
13.6292
13.5193
13.4151
13.3162
13.2224
13.1332
13.0484
12.9678
12.8911
12.8181
14.7657
14.5937
14.4315
14.2783
14.1337
13.997
13.8677
13.7453
13.6294
13.5195
13.4153
13.3164
13.2226
13.1334
13.0487
12.9681
12.8915
12.8185
14.7657
14.5937
14.4316
14.2785
14.1339
13.9972
13.868
13.7457
13.6299
13.5201
13.4161
13.3174
13.2239
13.135
13.0507
12.9705
12.8945
12.8221
14.7657
14.5938
14.4317
14.2786
14.1343
13.9977
13.869
13.7472
13.6324
13.5239
13.4217
13.325
13.2342
13.148
13.0673
12.9904
12.9189
12.8501
14.7657
14.5937
14.4319
14.2789
14.1361
14.002
13.8781
13.7628
13.6572
13.5594
13.4705
13.3881
13.3139
13.2445
13.1828
13.1236
13.0728
13.0213
14.7644
14.5922
14.4335
14.287
14.1628
14.0551
13.9689
13.8978
13.8459
13.8049
13.7784
13.7582
13.7485
13.7416
13.7431
13.744
13.7538
13.7525
14.7478
14.5944
14.4764
14.4102
14.4235
14.4614
14.5556
14.6709
14.8174
14.9619
15.1247
15.2723
15.4334
15.5701
15.7217
15.8397
15.9808
16.075
14.6504
14.7821
14.9371
15.3415
15.9232
16.5512
17.2349
17.8792
18.5397
19.124
19.716
20.2133
20.7247
21.1301
21.5649
21.8823
22.2528
22.4886
14.5722
16.1273
17.9733
20.4195
22.9256
25.267
27.551
29.5569
31.498
33.1106
34.6969
35.9259
37.1911
38.0819
39.0803
39.6925
40.4837
40.8754
16.5453
25.878
36.7244
46.5548
55.8745
64.2799
72.1193
78.7586
84.8321
89.6214
94.0569
97.2198
100.371
102.248
104.522
105.486
107.215
107.571
45.7989
105.207
164.46
217.249
267.899
313.504
353.763
386.207
413.377
433.81
450.801
462.914
473.147
480.04
487.125
490.631
496.515
497.866
632.352
1081.15
1534.76
1880.96
2183.46
2431.63
2631.39
2772.68
2875.78
2931.54
2968.41
2969.1
2961.98
2944.84
2916.75
2883.27
2847.31
2809.77
1.39811
1.92536
3.52151
5.10317
6.5286
7.76266
8.80431
9.68792
10.5444
11.3374
12.111
12.9244
13.8545
14.9723
16.3792
18.1461
20.2773
22.7491
25.5818
28.7942
32.4406
36.567
41.27
46.5717
52.5014
59.0749
66.3373
74.2668
82.8724
92.116
101.987
112.423
123.407
134.867
146.779
159.068
171.718
184.657
197.878
211.317
224.973
238.792
252.782
266.894
281.143
295.486
309.945
324.482
339.125
353.845
368.663
383.55
398.528
413.568
428.688
443.86
459.1
474.382
489.715
505.075
520.466
535.868
551.275
566.673
582.046
597.387
612.671
627.895
643.021
658.052
672.94
687.696
702.271
716.694
730.903
744.94
758.738
772.352
785.716
798.901
811.833
824.603
837.136
849.536
861.699
873.73
885.535
897.253
908.774
920.193
931.426
942.353
952.773
962.205
969.659
970.903
980.027
999.192
1001.99
1019.86
1024.6
1038.75
1042.15
1051.11
1057.38
1063.36
1063.77
1068.95
1082.03
1079.67
1083.01
1086.42
1089.3
1096.8
1092.42
1092.77
1094.39
1098.39
1094.74
1096.69
1090.95
1086
1079.55
1072.21
1063.79
1054.39
1043.97
1032.61
1020.29
1007
992.666
977.403
961.194
944.113
926.185
907.496
887.967
867.616
846.583
824.924
802.807
780.29
757.408
734.286
710.87
687.342
664.329
640.681
618.361
603.002
589.424
575.932
562.343
548.709
535.077
521.5
508.071
494.647
481.243
468.108
455.347
443.088
430.838
418.806
407.135
395.916
385.133
374.757
364.807
355.293
346.2
337.505
329.201
321.198
313.604
305.818
299.03
289.68
283.246
259.724
6.84357
4.25579
4.06176
4.32664
4.77611
5.30351
5.8837
6.5204
7.2251
7.99777
8.85364
9.81882
10.9268
12.2119
13.7065
15.4324
17.3992
19.6085
22.0637
24.7678
27.727
30.9449
34.4256
38.1627
42.1484
46.3719
50.8234
55.4899
60.3498
65.3728
70.5426
75.8397
81.2515
86.7618
92.3618
98.0394
103.79
109.604
115.479
121.408
127.391
133.423
139.505
145.632
151.806
158.025
164.292
170.608
176.98
183.399
189.857
196.35
202.879
209.439
216.029
222.644
229.282
235.938
242.609
249.289
255.975
262.66
269.34
276.008
282.658
289.283
295.877
302.434
308.943
315.4
321.793
328.118
334.364
340.53
346.606
352.591
358.477
364.267
369.951
375.536
381.013
386.389
391.658
396.824
401.878
406.827
411.66
416.387
420.99
425.468
429.783
433.893
437.741
441.259
444.405
447.303
451.252
455.55
458.323
462.228
464.674
467.683
469.503
471.758
473.434
475.117
475.315
477.031
479.28
481.179
481.876
481.927
482.671
484.367
483.335
483.415
483.53
483.594
482.858
482.869
480.818
478.86
476.459
473.743
470.679
467.28
463.543
459.475
455.075
450.336
445.243
439.826
434.041
427.899
421.41
414.586
407.424
399.93
392.136
384.059
375.735
367.188
358.433
349.505
340.408
331.175
321.923
312.515
303.145
294.937
287.222
279.626
272.056
264.518
257.034
249.625
242.329
235.123
227.924
220.78
213.795
207.01
200.363
193.874
187.577
181.509
175.679
170.083
164.724
159.608
154.733
150.093
145.692
141.499
137.584
133.739
130.478
126.767
125.059
124.946
14.0387
7.20383
6.06358
5.91963
6.11534
6.49094
6.98914
7.59351
8.30689
9.13865
10.1041
11.2224
12.514
13.997
15.6849
17.5845
19.6958
22.0139
24.5323
27.2439
30.1423
33.2207
36.4722
39.8882
43.461
47.1846
51.0387
54.9717
58.9791
63.0792
67.2723
71.5526
75.913
80.3463
84.8479
89.4145
94.0463
98.7364
103.482
108.279
113.126
118.021
122.963
127.951
132.983
138.058
143.177
148.337
153.539
158.78
164.057
169.368
174.712
180.086
185.488
190.917
196.37
201.842
207.333
212.837
218.351
223.871
229.393
234.911
240.421
245.916
251.392
256.841
262.257
267.635
272.966
278.244
283.463
288.616
293.698
298.702
303.624
308.458
313.199
317.845
322.389
326.829
331.16
335.379
339.48
343.461
347.315
351.04
354.627
358.069
361.353
364.463
367.39
370.137
372.74
375.294
377.953
380.492
382.689
384.897
386.744
388.529
390.021
391.467
392.712
393.8
394.637
395.728
396.713
397.445
397.886
398.063
398.172
398.373
397.994
397.749
397.385
396.854
396.01
395.094
393.581
391.908
389.974
387.795
385.364
382.676
379.73
376.521
373.044
369.294
365.264
360.954
356.358
351.476
346.314
340.877
335.171
329.203
322.989
316.544
309.887
303.033
295.999
288.798
281.441
273.959
266.397
258.764
251.175
243.962
236.999
230.151
223.367
216.644
209.999
203.446
197.009
190.685
184.46
178.346
172.383
166.514
160.783
155.2
149.772
144.532
139.485
134.636
129.99
125.55
121.317
117.289
113.47
109.848
106.456
103.221
100.355
97.5646
95.5201
95.0061
21.8137
10.2569
8.31463
7.8747
7.9309
8.24438
8.73206
9.36499
10.1378
11.0564
12.1332
13.3822
14.817
16.4471
18.2767
20.3038
22.5217
24.9196
27.4862
30.2098
33.0805
36.0889
39.2269
42.4859
45.8566
49.3271
52.8927
56.565
60.3453
64.2201
68.185
72.2389
76.3708
80.5711
84.8315
89.1403
93.5161
97.9551
102.456
107.015
111.632
116.304
121.029
125.806
130.634
135.511
140.435
145.405
150.42
155.479
160.578
165.717
170.895
176.108
181.357
186.638
191.95
197.289
202.654
208.042
213.448
218.869
224.301
229.739
235.178
240.614
246.039
251.448
256.835
262.191
267.511
272.786
278.01
283.175
288.273
293.298
298.241
303.096
307.856
312.514
317.064
321.498
325.81
329.994
334.045
337.955
341.72
345.332
348.787
352.079
355.201
358.149
360.921
363.53
365.999
368.36
370.633
372.756
374.688
376.482
378.084
379.548
380.849
382.032
383.069
383.956
384.698
385.412
385.968
386.218
386.221
386.126
385.972
385.696
385.188
384.587
383.837
382.902
381.748
380.402
378.759
376.914
374.844
372.548
370.019
367.251
364.24
360.981
357.469
353.698
349.663
345.364
340.799
335.967
330.873
325.522
319.921
314.078
308.006
301.718
295.23
288.555
281.706
274.694
267.523
260.254
252.926
245.574
238.27
231.137
224.157
217.282
210.491
203.786
197.18
190.686
184.321
178.092
171.999
166.05
160.263
154.627
149.151
143.828
138.631
133.609
128.757
124.088
119.606
115.318
111.223
107.324
103.623
100.118
96.828
93.7272
90.917
88.328
86.1993
85.1228
29.6489
13.4879
10.7163
9.99701
9.93535
10.2048
10.6928
11.3549
12.1771
13.1597
14.3099
15.6369
17.1492
18.8513
20.7434
22.8203
25.073
27.4898
30.0587
32.7681
35.6084
38.5713
41.6503
44.8399
48.1354
51.5329
55.0311
58.6304
62.3296
66.1239
70.0086
73.9775
78.0302
82.1657
86.3823
90.6805
95.0574
99.5093
104.034
108.628
113.29
118.018
122.809
127.663
132.576
137.548
142.577
147.661
152.798
157.988
163.228
168.517
173.854
179.237
184.664
190.135
195.646
201.196
206.783
212.404
218.054
223.732
229.433
235.152
240.884
246.624
252.365
258.101
263.825
269.528
275.203
280.841
286.434
291.972
297.446
302.846
308.164
313.39
318.514
323.527
328.421
333.185
337.81
342.29
346.615
350.778
354.772
358.59
362.228
365.679
368.94
372.009
374.888
377.583
380.11
382.481
384.699
386.748
388.615
390.31
391.829
393.185
394.379
395.419
396.297
397.012
397.565
397.968
398.116
397.981
397.769
397.418
396.93
396.283
395.453
394.465
393.3
391.941
390.375
388.598
386.589
384.366
381.92
379.247
376.342
373.199
369.813
366.18
362.294
358.154
353.755
349.097
344.179
339.003
333.574
327.896
321.977
315.827
309.457
302.88
296.109
289.16
282.048
274.793
267.405
259.954
252.466
244.977
237.538
230.207
222.993
215.881
208.867
201.956
195.161
188.496
181.974
175.605
169.395
163.352
157.485
151.796
146.286
140.954
135.79
130.806
125.968
121.306
116.822
112.522
108.409
104.487
100.761
97.2321
93.9132
90.7959
87.9402
85.3479
83.1289
81.6028
37.081
16.6742
13.1352
12.1585
11.9945
12.2255
12.7126
13.3955
14.251
15.2731
16.4638
17.828
19.3705
21.0935
22.9954
25.071
27.3122
29.7088
32.2504
34.9271
37.731
40.6554
43.6956
46.8478
50.1097
53.4796
56.9566
60.5403
64.2294
68.0219
71.9158
75.9085
79.999
84.186
88.4683
92.8447
97.3131
101.871
106.516
111.246
116.058
120.95
125.92
130.966
136.086
141.277
146.538
151.867
157.262
162.722
168.245
173.83
179.477
185.182
190.945
196.765
202.64
208.568
214.546
220.573
226.645
232.759
238.911
245.096
251.309
257.544
263.795
270.053
276.311
282.561
288.792
294.995
301.158
307.273
313.325
319.305
325.2
330.999
336.688
342.256
347.691
352.982
358.116
363.083
367.872
372.475
376.882
381.086
385.08
388.86
392.421
395.763
398.885
401.794
404.495
406.998
409.304
411.409
413.31
415.01
416.512
417.821
418.942
419.879
420.63
421.196
421.514
421.579
421.391
421.069
420.583
419.922
419.083
418.056
416.834
415.418
413.8
411.971
409.924
407.654
405.155
402.429
399.47
396.275
392.839
389.158
385.227
381.044
376.606
371.912
366.959
361.749
356.283
350.564
344.597
338.387
331.944
325.278
318.399
311.322
304.062
296.64
289.077
281.397
273.626
265.804
257.965
250.142
242.375
234.698
227.126
219.662
212.309
205.076
197.976
191.024
184.231
177.609
171.165
164.907
158.843
152.976
147.307
141.836
136.559
131.477
126.579
121.858
117.303
112.924
108.726
104.717
100.903
97.2896
93.8881
90.6995
87.7631
85.0996
82.775
80.9065
43.9778
19.7344
15.4901
14.2731
14.0134
14.2058
14.6867
15.3802
16.2539
17.2956
18.5025
19.8759
21.4182
23.1301
25.0105
27.0552
29.2581
31.6117
34.108
36.7396
39.5003
42.3852
45.3907
48.5144
51.7551
55.1119
58.5846
62.173
65.8766
69.6949
73.6271
77.6723
81.8297
86.0985
90.4777
94.966
99.5618
104.263
109.068
113.974
118.979
124.081
129.276
134.564
139.942
145.408
150.959
156.594
162.311
168.109
173.987
179.942
185.974
192.082
198.265
204.521
210.849
217.247
223.715
230.248
236.845
243.502
250.215
256.98
263.791
270.642
277.525
284.433
291.355
298.283
305.206
312.111
318.986
325.819
332.595
339.299
345.918
352.437
358.839
365.111
371.236
377.201
382.99
388.591
393.989
399.173
404.133
408.859
413.343
417.578
421.562
425.291
428.764
431.985
434.957
437.686
440.174
442.422
444.43
446.201
447.738
449.045
450.129
450.993
451.636
451.97
452.01
451.851
451.477
450.893
450.101
449.095
447.872
446.427
444.758
442.861
440.733
438.368
435.763
432.915
429.823
426.483
422.895
419.054
414.958
410.605
405.994
401.123
395.992
390.6
384.952
379.047
372.89
366.486
359.841
352.963
345.86
338.544
331.03
323.334
315.478
307.484
299.378
291.184
282.93
274.649
266.372
258.13
249.953
241.868
233.892
226.032
218.299
210.702
203.256
195.972
188.864
181.943
175.217
168.695
162.382
156.282
150.398
144.728
139.272
134.026
128.986
124.144
119.492
115.003
110.688
106.558
102.626
98.8977
95.3851
92.0955
89.0528
86.2821
83.8294
81.6873
51.145
22.7824
17.7711
16.2915
15.9258
16.0716
16.538
17.2322
18.1124
19.1599
20.3677
21.7339
23.259
24.9432
26.786
28.7848
30.9359
33.2344
35.6751
38.2529
40.9635
43.8036
46.7707
49.8636
53.0815
56.4243
59.8924
63.4861
67.206
71.0522
75.0251
79.1247
83.3508
87.7032
92.1816
96.7849
101.512
106.362
111.333
116.422
121.629
126.951
132.385
137.93
143.583
149.343
155.207
161.173
167.241
173.407
179.673
186.035
192.494
199.048
205.697
212.44
219.275
226.202
233.218
240.322
247.512
254.784
262.134
269.557
277.049
284.601
292.206
299.856
307.54
315.247
322.965
330.679
338.376
346.039
353.653
361.199
368.661
376.02
383.258
390.355
397.294
404.056
410.623
416.979
423.107
428.992
434.621
439.982
445.065
449.862
454.368
458.578
462.491
466.106
469.427
472.457
475.198
477.654
479.825
481.715
483.327
484.666
485.738
486.554
487.054
487.205
487.062
486.693
486.072
485.198
484.069
482.684
481.039
479.132
476.962
474.526
471.824
468.852
465.61
462.096
458.311
454.255
449.926
445.325
440.45
435.303
429.886
424.199
418.247
412.033
405.56
398.836
391.866
384.658
377.22
369.562
361.697
353.639
345.408
337.023
328.508
319.888
311.188
302.435
293.655
284.876
276.125
267.429
258.814
250.303
241.911
233.65
225.531
217.565
209.765
202.143
194.712
187.482
180.462
173.66
167.082
160.732
154.611
148.72
143.056
137.618
132.401
127.399
122.604
117.996
113.55
109.286
105.221
101.364
97.7274
94.32
91.1587
88.2656
85.6739
83.3047
59.6637
25.9484
19.9787
18.1786
17.6829
17.7685
18.2105
18.8969
19.7754
20.8209
22.0217
23.3734
24.8745
26.525
28.3247
30.2727
32.3673
34.6059
36.9858
39.5041
42.1585
44.9469
47.8684
50.9222
54.1087
57.4283
60.8821
64.4712
68.1967
72.0599
76.0617
80.2032
84.4851
88.9078
93.4716
98.1763
103.022
108.007
113.132
118.394
123.792
129.325
134.991
140.787
146.713
152.766
158.944
165.247
171.672
178.218
184.885
191.671
198.577
205.6
212.742
220.001
227.377
234.868
242.475
250.194
258.024
265.962
274.003
282.144
290.378
298.698
307.096
315.562
324.084
332.651
341.247
349.858
358.466
367.053
375.6
384.086
392.491
400.792
408.968
416.995
424.851
432.515
439.964
447.178
454.137
460.823
467.218
473.309
479.083
484.53
489.641
494.411
498.836
502.915
506.649
510.039
513.089
515.802
518.179
520.225
521.943
523.339
524.42
525.178
525.547
525.551
525.261
524.673
523.785
522.596
521.101
519.302
517.195
514.78
512.056
509.024
505.681
502.03
498.07
493.803
489.23
484.355
479.179
473.705
467.936
461.877
455.532
448.908
442.012
434.851
427.435
419.774
411.877
403.757
395.426
386.899
378.192
369.325
360.319
351.198
341.985
332.709
323.392
314.062
304.742
295.455
286.225
277.075
268.025
259.098
250.306
241.663
233.179
224.864
216.73
208.788
201.051
193.528
186.227
179.155
172.32
165.724
159.369
153.257
147.384
141.748
136.345
131.169
126.214
121.465
116.884
112.482
108.28
104.293
100.529
96.9988
93.7149
90.6945
87.9611
85.398
67.6418
28.8712
21.9799
19.8614
19.231
19.2514
19.6633
20.3368
21.2094
22.2495
23.4413
24.7772
26.2544
27.8721
29.6303
31.5292
33.5685
35.7476
38.0657
40.522
43.1157
45.8464
48.7142
51.7195
54.8635
58.1475
61.5733
65.1428
68.8581
72.7211
76.734
80.8984
85.216
89.6881
94.316
99.1004
104.042
109.141
114.398
119.811
125.382
131.107
136.988
143.021
149.206
155.542
162.027
168.66
175.439
182.365
189.437
196.654
204.015
211.521
219.172
226.967
234.907
242.99
251.216
259.584
268.091
276.736
285.513
294.418
303.446
312.588
321.835
331.178
340.603
350.096
359.641
369.22
378.815
388.404
397.964
407.472
416.902
426.229
435.428
444.47
453.329
461.98
470.395
478.55
486.422
493.988
501.227
508.123
514.659
520.822
526.602
531.992
536.984
541.578
545.771
549.566
552.964
555.968
558.582
560.808
562.651
564.117
565.215
565.916
566.191
566.075
565.607
564.786
563.61
562.077
560.185
557.935
555.324
552.353
549.022
545.331
541.282
536.877
532.118
527.009
521.555
515.761
509.633
503.177
496.401
489.312
481.922
474.241
466.282
458.058
449.583
440.874
431.946
422.818
413.509
404.038
394.427
384.698
374.875
364.984
355.052
345.105
335.166
325.259
315.407
305.626
295.936
286.355
276.899
267.588
258.435
249.449
240.641
232.018
223.59
215.369
207.362
199.58
192.03
184.719
177.653
170.836
164.269
157.952
151.884
146.062
140.481
135.136
130.021
125.122
120.403
115.866
111.535
107.421
103.536
99.887
96.4837
93.339
90.4683
87.7384
74.619
31.4104
23.6993
21.2912
20.5329
20.4926
20.871
21.5296
22.3952
23.43
24.6141
25.9373
27.3949
28.9852
30.7079
32.5637
34.5533
36.6775
38.9368
41.332
43.8639
46.5335
49.342
52.2911
55.383
58.6199
62.0048
65.5403
69.2296
73.0757
77.0813
81.2493
85.5821
90.0821
94.7517
99.5928
104.607
109.797
115.163
120.705
126.426
132.325
138.401
144.655
151.086
157.692
164.474
171.431
178.561
185.866
193.345
200.997
208.823
216.824
224.999
233.349
241.874
250.573
259.447
268.494
277.713
287.101
296.653
306.366
316.233
326.245
336.393
346.665
357.047
367.524
378.077
388.687
399.33
409.984
420.621
431.215
441.736
452.155
462.441
472.562
482.488
492.187
501.629
510.784
519.625
528.125
536.26
544.008
551.351
558.273
564.761
570.804
576.395
581.53
586.206
590.426
594.189
597.499
600.359
602.772
604.745
606.28
607.385
608.033
608.221
607.97
607.303
606.221
604.726
602.816
600.489
597.745
594.582
591
587.002
582.588
577.762
572.526
566.886
560.847
554.418
547.606
540.423
532.877
524.983
516.752
508.201
499.348
490.211
480.811
471.17
461.312
451.261
441.041
430.681
420.204
409.638
399.006
388.337
377.658
366.997
356.378
345.826
335.362
325.004
314.763
304.652
294.683
284.869
275.227
265.769
256.501
247.428
238.558
229.896
221.451
213.231
205.242
197.493
189.988
182.733
175.734
168.991
162.503
156.269
150.285
144.547
139.051
133.789
128.748
123.894
119.233
114.785
110.559
106.564
102.807
99.2937
96.0338
93.0361
90.1642
80.363
33.4929
25.0944
22.4376
21.5644
21.4698
21.8203
22.466
23.3262
24.3583
25.5388
26.8548
28.2998
29.8708
31.5673
33.3895
35.3387
37.4164
39.6243
41.9641
44.4379
47.048
49.7968
52.6874
55.7229
58.9069
62.2434
65.7363
69.3899
73.2082
77.1947
81.353
85.6867
90.199
94.8937
99.7741
104.844
110.106
115.564
121.22
127.077
133.136
139.398
145.863
152.532
159.406
166.483
173.766
181.252
188.944
196.84
204.942
213.25
221.765
230.488
239.418
248.557
257.905
267.461
277.224
287.193
297.365
307.736
318.301
329.053
339.982
351.079
362.33
373.719
385.23
396.841
408.53
420.272
432.039
443.801
455.527
467.183
478.736
490.149
501.387
512.414
523.194
533.691
543.872
553.705
563.159
572.206
580.821
588.982
596.669
603.868
610.566
616.753
622.424
627.577
632.21
636.326
639.927
643.017
645.599
647.679
649.261
650.346
650.927
651.002
650.578
649.669
648.285
646.426
644.091
641.277
637.982
634.208
629.953
625.219
620.009
614.327
608.178
601.569
594.509
587.008
579.078
570.735
561.993
552.87
543.386
533.564
523.429
513.008
502.33
491.428
480.333
469.077
457.696
446.223
434.692
423.132
411.571
400.039
388.565
377.179
365.905
354.765
343.779
332.963
322.315
311.841
301.547
291.44
281.538
271.851
262.378
253.12
244.078
235.258
226.664
218.301
210.175
202.289
194.651
187.265
180.138
173.267
166.654
160.295
154.186
148.324
142.704
137.319
132.152
127.181
122.418
117.873
113.555
109.468
105.619
102.011
98.6508
95.5411
92.5519
84.723
35.0766
26.1458
23.2914
22.3244
22.1855
22.514
23.1508
24.0096
25.0434
26.2261
27.5424
28.984
30.5468
32.229
34.0307
35.9531
37.9979
40.1672
42.4638
44.8905
47.4508
50.1484
52.9873
55.9721
59.1078
62.3996
65.8529
69.4744
73.2683
77.238
81.3876
85.7212
90.2437
94.9601
99.8759
104.997
110.328
115.876
121.644
127.639
133.863
140.316
147.002
153.923
161.079
168.471
176.1
183.968
192.074
200.419
209.004
217.831
226.9
236.212
245.768
255.568
265.612
275.9
286.432
297.203
308.213
319.456
330.925
342.614
354.512
366.607
378.885
391.328
403.916
416.626
429.432
442.306
455.215
468.127
481.006
493.813
506.51
519.058
531.414
543.538
555.39
566.931
578.121
588.924
599.306
609.236
618.684
627.627
636.041
643.91
651.218
657.955
664.115
669.694
674.691
679.107
682.947
686.213
688.911
691.045
692.621
693.642
694.106
694.009
693.338
692.117
690.365
688.074
685.243
681.869
677.95
673.485
668.476
662.922
656.829
650.2
643.044
635.368
627.185
618.507
609.354
599.743
589.696
579.236
568.394
557.197
545.681
533.881
521.837
509.59
497.185
484.66
472.059
459.428
446.81
434.235
421.733
409.338
397.081
384.992
373.097
361.412
349.957
338.746
327.761
317.003
306.469
296.157
286.091
276.269
266.686
257.337
248.219
239.332
230.678
222.258
214.076
206.134
198.435
190.989
183.798
176.862
170.18
163.747
157.561
151.616
145.91
140.434
135.169
130.117
125.282
120.669
116.283
112.129
108.21
104.528
101.085
97.8828
94.8015
87.6618
36.1516
26.8517
23.8571
22.8227
22.6528
22.9684
23.6032
24.4668
25.5098
26.7034
28.0306
29.4816
31.0508
32.7356
34.5354
36.4508
38.4835
40.6361
42.9114
45.3132
47.8456
50.5135
53.3223
56.278
59.3876
62.6565
66.0904
69.6962
73.4798
77.4467
81.6025
85.9531
90.5051
95.2657
100.243
105.444
110.877
116.548
122.465
128.633
135.056
141.739
148.687
155.904
163.392
171.151
179.184
187.491
196.074
204.934
214.071
223.488
233.184
243.16
253.417
263.955
274.773
285.871
297.246
308.896
320.815
333
345.441
358.129
371.054
384.201
397.552
411.089
424.788
438.623
452.565
466.58
480.635
494.69
508.705
522.639
536.448
550.087
563.511
576.676
589.535
602.047
614.168
625.858
637.081
647.801
657.987
667.612
676.652
685.088
692.904
700.088
706.632
712.533
717.789
722.404
726.38
729.722
732.436
734.529
736.005
736.869
737.118
736.751
735.723
734.099
731.879
729.058
725.631
721.595
716.948
711.689
705.818
699.337
692.25
684.564
676.289
667.434
658.016
648.051
637.562
626.574
615.115
603.215
590.913
578.249
565.263
552.001
538.514
524.855
511.083
497.24
483.383
469.565
455.826
442.18
428.699
415.423
402.388
389.624
377.155
364.993
353.159
341.669
330.469
319.544
308.886
298.475
288.367
278.54
268.977
259.665
250.594
241.761
233.162
224.798
216.667
208.768
201.096
193.67
186.494
179.564
172.88
166.435
160.227
154.249
148.501
142.972
137.664
132.575
127.706
123.06
118.639
114.446
110.484
106.75
103.25
99.9768
96.8298
88.9599
36.6641
27.2019
24.1427
23.0776
22.8971
23.2143
23.8589
24.7392
25.804
27.0232
28.3785
29.8586
31.4569
33.1699
34.9961
36.9358
38.9904
41.1622
43.4544
45.8711
48.417
51.0981
53.9214
56.8923
60.0168
63.3023
66.7565
70.3875
74.2035
78.2126
82.4232
86.8438
91.4836
96.3518
101.458
106.812
112.422
118.299
124.449
130.881
137.601
144.614
151.926
159.541
167.465
175.701
184.249
193.112
202.29
211.784
221.595
231.724
242.171
252.935
264.016
275.413
287.124
299.147
311.478
324.11
337.04
350.257
363.752
377.514
391.528
405.777
420.242
434.899
449.722
464.681
479.743
494.87
510.025
525.163
540.241
555.213
570.031
584.648
599.013
613.08
626.8
640.126
653.014
665.422
677.309
688.64
699.383
709.508
718.991
727.811
735.952
743.402
750.153
756.2
761.545
766.189
770.136
773.394
775.967
777.864
779.093
779.658
779.55
778.736
777.222
775.057
772.232
768.742
764.581
759.746
754.234
748.044
741.176
733.633
725.419
716.545
707.018
696.857
686.077
674.703
662.76
650.283
637.303
623.86
610.001
595.785
581.252
566.46
551.474
536.331
521.067
505.791
490.579
475.512
460.678
446.142
431.871
417.901
404.268
390.998
378.112
365.618
353.53
341.88
330.547
319.553
308.88
298.487
288.441
278.7
269.243
260.05
251.109
242.41
233.948
225.718
217.716
209.939
202.376
195.069
188.001
181.166
174.56
168.177
162.016
156.061
150.327
144.814
139.522
134.448
129.59
124.951
120.531
116.333
112.357
108.602
105.069
101.751
98.566
89.1451
36.7347
27.2553
24.1954
23.1377
22.9732
23.3126
23.988
24.9078
26.0201
27.2938
28.7097
30.2556
31.9242
33.711
35.614
37.6331
39.77
42.0265
44.4054
46.9108
49.5476
52.3213
55.2378
58.3049
61.5307
64.9241
68.4947
72.2526
76.2084
80.3728
84.7569
89.3722
94.2303
99.3431
104.722
110.38
116.327
122.574
129.132
136.008
143.212
150.751
158.63
166.853
175.424
184.349
193.63
203.269
213.264
223.616
234.325
245.389
256.807
268.576
280.694
293.157
305.96
319.097
332.56
346.342
360.431
374.817
389.484
404.417
419.598
435.006
450.618
466.406
482.34
498.386
514.506
530.66
546.803
562.891
578.874
594.705
610.333
625.708
640.781
655.5
669.817
683.685
697.059
709.894
722.152
733.798
744.798
755.124
764.754
773.665
781.843
789.274
795.952
801.873
807.038
811.45
815.114
818.037
820.228
821.697
822.455
822.482
821.78
820.291
818.091
815.174
811.535
807.168
802.067
796.227
789.647
782.324
774.26
765.458
755.925
745.671
734.709
723.06
710.746
697.792
684.233
670.118
655.479
640.361
624.822
608.839
592.543
576.017
559.359
542.71
526.149
509.668
493.345
477.273
461.588
446.142
431.061
416.397
402.187
388.455
375.217
362.474
350.226
338.462
327.138
316.229
305.706
295.54
285.724
276.233
267.041
258.125
249.465
241.046
232.858
224.894
217.148
209.61
202.262
195.148
188.252
181.57
175.103
168.836
162.774
156.912
151.276
145.855
140.646
135.646
130.853
126.264
121.886
117.719
113.763
110.016
106.48
103.144
99.95
88.0845
36.4179
27.0772
24.0815
23.0746
22.9641
23.3705
24.1244
25.1335
26.3469
27.7342
29.2759
30.9599
32.7781
34.7259
36.8009
39.0023
41.3306
43.788
46.378
49.1047
51.9735
54.9905
58.1628
61.499
65.0087
68.7023
72.5912
76.6875
81.0042
85.5545
90.3522
95.4116
100.747
106.373
112.304
118.554
125.136
132.062
139.342
146.987
155.008
163.41
172.2
181.379
190.95
200.912
211.266
222.014
233.153
244.682
256.597
268.894
281.566
294.609
308.014
321.772
335.874
350.309
365.064
380.124
395.474
411.094
426.965
443.066
459.374
475.863
492.506
509.272
526.125
543.03
559.944
576.824
593.625
610.297
626.795
643.067
659.066
674.743
690.05
704.938
719.36
733.273
746.632
759.398
771.534
783.006
793.786
803.847
813.167
821.728
829.516
836.518
842.727
848.142
852.762
856.59
859.636
861.902
863.404
864.152
864.133
863.357
861.75
859.379
856.241
852.33
847.641
842.166
835.901
828.839
820.978
812.316
802.855
792.601
781.563
769.751
757.185
743.891
729.896
715.227
699.922
683.957
667.44
650.447
633.04
615.431
597.622
579.654
561.637
543.744
525.84
508.094
490.607
473.472
456.768
440.518
424.776
409.584
394.975
380.968
367.571
354.779
342.576
330.936
319.819
309.187
298.998
289.215
279.808
270.742
261.987
253.51
245.286
237.295
229.525
221.963
214.601
207.426
200.434
193.636
187.025
180.599
174.365
168.319
162.461
156.785
151.312
146.039
140.964
136.085
131.401
126.91
122.62
118.527
114.632
110.93
107.425
104.102
100.929
85.7977
35.659
26.6471
23.8175
22.9441
22.9719
23.5175
24.4173
25.5896
26.986
28.577
30.3441
32.2754
34.3636
36.6044
38.9955
41.5366
44.2285
47.0737
50.076
53.2399
56.5713
60.0768
63.7645
67.6439
71.7256
76.0216
80.5446
85.3085
90.3278
95.618
101.195
107.075
113.273
119.808
126.697
133.956
141.597
149.63
158.065
166.908
176.165
185.84
195.937
206.458
217.401
228.764
240.544
252.736
265.334
278.329
291.714
305.478
319.61
334.098
348.927
364.083
379.549
395.308
411.339
427.621
444.13
460.842
477.73
494.767
511.927
529.179
546.492
563.835
581.171
598.461
615.662
632.733
649.626
666.299
682.706
698.802
714.545
729.89
744.797
759.221
773.124
786.466
799.209
811.317
822.761
833.509