/*--------------------------------*- C++ -*----------------------------------*\
| =========                 |                                                 |
| \\      /  F ield         | OpenFOAM: The Open Source CFD Toolbox           |
|  \\    /   O peration     | Version:  2406                                  |
|   \\  /    A nd           | Website:  www.openfoam.com                      |
|    \\/     M anipulation  |                                                 |
\*---------------------------------------------------------------------------*/
FoamFile
{
    version     2.0;
    format      ascii;
    arch        "LSB;label=32;scalar=64";
    class       volScalarField;
    location    "100";
    object      k;
}
// * * * * * * * * * * * * * * * * * * * * * * * * * * * * * * * * * * * * * //

dimensions      [0 2 -2 0 0 0 0];

internalField   nonuniform List<scalar> 
12225
(
0.571482
0.987658
1.28117
1.45561
1.54171
1.57754
1.57647
1.5662
1.54804
1.52427
1.50097
1.47863
1.45865
1.43994
1.4244
1.40907
1.39846
1.38453
0.438458
0.496919
0.521906
0.534926
0.542818
0.547382
0.55015
0.552135
0.55584
0.559313
0.565269
0.570879
0.579103
0.586424
0.596099
0.604479
0.614148
0.624154
0.387567
0.417492
0.424191
0.421531
0.415025
0.404986
0.39379
0.382819
0.371924
0.362425
0.353239
0.346084
0.338979
0.334269
0.329101
0.326563
0.322983
0.322095
0.376179
0.384814
0.388125
0.387416
0.385431
0.381146
0.375676
0.369572
0.363112
0.356578
0.350112
0.343825
0.337833
0.332097
0.3268
0.321726
0.317205
0.312769
0.374178
0.375372
0.376397
0.37593
0.374798
0.372514
0.369613
0.366145
0.362486
0.358484
0.354564
0.350392
0.346537
0.342418
0.338824
0.334873
0.331659
0.327926
0.373737
0.372543
0.371996
0.371084
0.369917
0.368271
0.36634
0.364038
0.361644
0.358977
0.356381
0.353552
0.350931
0.348072
0.345546
0.342739
0.34039
0.337682
0.373769
0.371725
0.37023
0.368833
0.367465
0.365944
0.364347
0.362557
0.360739
0.358758
0.356822
0.354744
0.352784
0.350685
0.348771
0.346701
0.344886
0.342873
0.373818
0.371563
0.36962
0.367861
0.366251
0.364666
0.363124
0.361526
0.35995
0.358305
0.356704
0.355037
0.353442
0.351786
0.350233
0.348613
0.347132
0.345558
0.373832
0.371554
0.369457
0.367511
0.365723
0.364027
0.362431
0.360865
0.35936
0.357858
0.356409
0.354954
0.353554
0.352145
0.350803
0.349447
0.348174
0.346872
0.373832
0.37156
0.369425
0.36741
0.36553
0.363754
0.362089
0.360496
0.358985
0.357522
0.356123
0.354757
0.353449
0.352164
0.350935
0.349725
0.348572
0.347429
0.37383
0.371561
0.369417
0.367385
0.365469
0.363654
0.361944
0.36032
0.358783
0.357315
0.355919
0.354578
0.353299
0.352066
0.350887
0.349745
0.348653
0.347595
0.373828
0.371559
0.369412
0.367375
0.365449
0.363621
0.361891
0.36025
0.358695
0.357214
0.355809
0.354467
0.35319
0.351968
0.350802
0.349684
0.348615
0.347588
0.373827
0.371557
0.369407
0.367369
0.365437
0.363604
0.361866
0.360216
0.35865
0.35716
0.355745
0.354398
0.353115
0.351893
0.350727
0.349614
0.348551
0.347535
0.373827
0.371555
0.369403
0.367362
0.365428
0.363592
0.36185
0.360195
0.358622
0.357127
0.355705
0.354351
0.353063
0.351836
0.350666
0.349551
0.348485
0.34747
0.373826
0.371553
0.369399
0.367357
0.36542
0.363582
0.361836
0.360178
0.358602
0.357103
0.355677
0.354319
0.353026
0.351794
0.35062
0.349501
0.348432
0.347414
0.373826
0.371552
0.369396
0.367352
0.365413
0.363573
0.361825
0.360164
0.358585
0.357083
0.355654
0.354294
0.352997
0.351762
0.350585
0.349462
0.34839
0.347369
0.373825
0.371551
0.369394
0.367349
0.365408
0.363566
0.361816
0.360153
0.358572
0.357068
0.355636
0.354273
0.352974
0.351737
0.350557
0.349431
0.348357
0.347333
0.373825
0.371551
0.369393
0.367347
0.365405
0.363561
0.36181
0.360145
0.358562
0.357056
0.355623
0.354258
0.352957
0.351718
0.350536
0.349409
0.348333
0.347307
0.373825
0.371551
0.369393
0.367346
0.365404
0.36356
0.361808
0.360142
0.358558
0.357051
0.355617
0.35425
0.352949
0.351708
0.350525
0.349397
0.34832
0.347293
0.373825
0.371551
0.369394
0.367348
0.365406
0.363562
0.36181
0.360145
0.358561
0.357054
0.35562
0.354253
0.352952
0.351711
0.350529
0.3494
0.348324
0.347297
0.373826
0.371552
0.369396
0.367351
0.365409
0.363567
0.361815
0.360152
0.358569
0.357063
0.35563
0.354265
0.352965
0.351726
0.350545
0.349418
0.348343
0.347317
0.373826
0.371553
0.369398
0.367355
0.365415
0.363575
0.361827
0.360167
0.358589
0.357089
0.355661
0.354303
0.353008
0.351774
0.350597
0.349474
0.348402
0.347376
0.373826
0.371555
0.369401
0.367363
0.365431
0.363605
0.361874
0.360235
0.358679
0.3572
0.355791
0.354447
0.353162
0.351934
0.350756
0.349628
0.348545
0.347505
0.373827
0.371555
0.369413
0.367418
0.365544
0.363793
0.362137
0.36057
0.359069
0.357629
0.356237
0.354892
0.353584
0.352318
0.351084
0.349888
0.348721
0.347593
0.373819
0.371564
0.369582
0.367845
0.366223
0.364711
0.363218
0.361752
0.360264
0.358784
0.357285
0.355796
0.354302
0.352828
0.351355
0.349917
0.348487
0.347101
0.373767
0.371946
0.370917
0.369978
0.368912
0.367766
0.366325
0.364735
0.362931
0.361058
0.359056
0.357049
0.354965
0.352918
0.350837
0.348816
0.346782
0.344828
0.374093
0.3752
0.377259
0.377562
0.377092
0.375807
0.37349
0.370864
0.367803
0.364685
0.361328
0.358023
0.3546
0.351284
0.347917
0.34469
0.341464
0.338402
0.377677
0.394075
0.402941
0.40235
0.400305
0.396039
0.390668
0.385161
0.379137
0.373297
0.367226
0.361469
0.355724
0.350299
0.345133
0.340192
0.335732
0.33132
0.405777
0.438975
0.451198
0.455809
0.459134
0.46227
0.465012
0.467256
0.469286
0.470895
0.472579
0.474008
0.475662
0.477185
0.479358
0.48098
0.483851
0.485564
0.479016
0.68492
0.86515
0.990795
1.09436
1.17579
1.23933
1.28331
1.31493
1.33186
1.34301
1.34321
1.34106
1.33588
1.32736
1.31718
1.3062
1.29469
0.00946685
0.0192079
0.0286298
0.0365875
0.0430525
0.0482584
0.0524296
0.0559626
0.059235
0.0622057
0.0650772
0.0680687
0.0714394
0.0754184
0.0802991
0.0861429
0.0928326
0.100245
0.108383
0.117236
0.126877
0.137342
0.148779
0.161137
0.174385
0.188473
0.203415
0.219079
0.23543
0.252342
0.269759
0.287549
0.305667
0.323986
0.342472
0.361013
0.379597
0.398132
0.416622
0.434994
0.453268
0.471382
0.489367
0.507174
0.524838
0.542319
0.559656
0.576815
0.593839
0.610704
0.627448
0.644043
0.660522
0.676859
0.693084
0.709168
0.725138
0.740968
0.756676
0.772238
0.787667
0.802941
0.818063
0.833019
0.847802
0.862402
0.876805
0.891008
0.904987
0.918744
0.932246
0.945499
0.958461
0.971156
0.983539
0.995643
1.00742
1.01892
1.03008
1.04097
1.05154
1.06185
1.07185
1.08162
1.09109
1.10034
1.10932
1.11811
1.12664
1.13497
1.14301
1.15059
1.15739
1.16265
1.16327
1.17699
1.1818
1.18539
1.19791
1.20049
1.21136
1.21239
1.22496
1.22733
1.23013
1.22822
1.23178
1.24128
1.23909
1.24175
1.24987
1.2493
1.24981
1.24724
1.24734
1.24815
1.25013
1.24591
1.24436
1.24412
1.24404
1.23863
1.23369
1.22768
1.22097
1.2135
1.20526
1.19631
1.1866
1.17619
1.16494
1.15294
1.14014
1.12661
1.11233
1.09736
1.08171
1.06527
1.04815
1.03037
1.01196
0.993079
0.973694
0.953878
0.933679
0.913014
0.892144
0.871492
0.849775
0.830457
0.816764
0.803918
0.790974
0.777844
0.764585
0.751218
0.737844
0.724469
0.710939
0.697373
0.683986
0.670899
0.658129
0.645235
0.632493
0.62005
0.607966
0.596208
0.584785
0.573728
0.563041
0.552707
0.542722
0.53302
0.523681
0.514116
0.50566
0.49372
0.487823
0.457509
0.0270991
0.0529461
0.0737212
0.0895336
0.102652
0.113999
0.124028
0.133027
0.141355
0.14954
0.158036
0.16723
0.177433
0.188845
0.201549
0.215534
0.230788
0.247288
0.265016
0.283962
0.304148
0.325593
0.34832
0.372317
0.397564
0.424021
0.451645
0.480368
0.510105
0.540725
0.572122
0.604178
0.636791
0.669849
0.703255
0.736906
0.770724
0.804626
0.838558
0.872457
0.906286
0.940002
0.973585
1.00701
1.04026
1.07333
1.10621
1.1389
1.17141
1.20374
1.2359
1.26788
1.29969
1.33133
1.36281
1.39411
1.42524
1.45619
1.48694
1.5175
1.54784
1.57795
1.60781
1.6374
1.6667
1.69568
1.72431
1.75257
1.78044
1.80788
1.83487
1.86139
1.88737
1.91278
1.93758
1.96174
1.98525
2.0081
2.03026
2.05173
2.07251
2.0926
2.112
2.13073
2.1488
2.16622
2.18301
2.1992
2.21481
2.2299
2.24445
2.25846
2.27189
2.28476
2.2972
2.31028
2.32164
2.33291
2.34501
2.35545
2.36657
2.3762
2.38648
2.39482
2.40266
2.40962
2.41716
2.42367
2.42847
2.43372
2.43867
2.44245
2.4446
2.44753
2.44857
2.45029
2.45127
2.45144
2.45131
2.4521
2.44988
2.44614
2.44154
2.43574
2.4288
2.42065
2.41128
2.40066
2.38878
2.37569
2.36122
2.34525
2.32778
2.3088
2.28829
2.26626
2.24273
2.21773
2.19128
2.16343
2.13421
2.10366
2.07187
2.03894
2.00497
1.96999
1.93403
1.89745
1.86032
1.82244
1.78457
1.74634
1.70776
1.66899
1.6302
1.59156
1.55318
1.51516
1.47697
1.4391
1.40186
1.36547
1.32994
1.29499
1.26087
1.22777
1.19575
1.16472
1.13471
1.1058
1.07797
1.0512
1.02549
1.00078
0.977058
0.954076
0.932505
0.909582
0.893824
0.849385
0.0435618
0.0839622
0.11126
0.131627
0.148728
0.163925
0.177924
0.191214
0.204234
0.217405
0.231131
0.245775
0.261636
0.278925
0.297763
0.318192
0.340205
0.363762
0.388819
0.415334
0.443283
0.472643
0.503398
0.535517
0.568968
0.603699
0.639653
0.676739
0.714842
0.753844
0.793642
0.834125
0.87519
0.916728
0.95864
1.00083
1.04321
1.0857
1.12824
1.17078
1.21327
1.25567
1.29796
1.34012
1.38212
1.42396
1.46564
1.50714
1.54847
1.58962
1.6306
1.6714
1.71203
1.75248
1.79276
1.83285
1.87276
1.91247
1.95197
1.99125
2.0303
2.06909
2.1076
2.1458
2.18367
2.22117
2.25827
2.29493
2.33112
2.36679
2.4019
2.43642
2.47028
2.50346
2.5359
2.56757
2.59844
2.62846
2.65763
2.6859
2.71327
2.73972
2.76524
2.78982
2.81346
2.83617
2.85794
2.8788
2.89876
2.91783
2.93604
2.95339
2.96987
2.98551
3.00038
3.01459
3.02785
3.04063
3.05295
3.06427
3.07513
3.08503
3.09439
3.10279
3.11053
3.11789
3.12456
3.1302
3.13519
3.13955
3.14329
3.14612
3.14772
3.14899
3.14909
3.14802
3.14686
3.14483
3.14208
3.1383
3.13302
3.12636
3.11846
3.1092
3.09853
3.0864
3.07275
3.05752
3.04069
3.02219
3.00196
2.97993
2.95606
2.93035
2.90278
2.87335
2.84208
2.809
2.77415
2.73758
2.69935
2.65953
2.61819
2.57541
2.53129
2.48588
2.43928
2.39177
2.34376
2.29528
2.24649
2.19735
2.14791
2.09835
2.04886
1.9996
1.95074
1.90238
1.85449
1.80725
1.76084
1.71544
1.67106
1.62722
1.58439
1.5428
1.50253
1.46342
1.42554
1.38901
1.35382
1.31995
1.28741
1.25617
1.22623
1.19746
1.1703
1.14328
1.12296
1.08451
0.0582464
0.114563
0.147947
0.172453
0.192985
0.211346
0.22846
0.244939
0.261277
0.277915
0.29526
0.313668
0.333437
0.354781
0.377832
0.402643
0.42921
0.457492
0.487436
0.518989
0.552106
0.586747
0.622879
0.66046
0.69944
0.739753
0.781317
0.824028
0.867791
0.912512
0.958088
1.00441
1.05138
1.09888
1.14683
1.19511
1.24366
1.29239
1.34125
1.39017
1.43911
1.48804
1.53692
1.58572
1.63442
1.68302
1.73148
1.77982
1.82801
1.87606
1.92396
1.97171
2.0193
2.06674
2.11403
2.16114
2.20808
2.25485
2.30141
2.34777
2.3939
2.43978
2.48539
2.53069
2.57565
2.62024
2.66441
2.70812
2.75133
2.79398
2.83602
2.8774
2.91806
2.95795
2.99702
3.0352
3.07246
3.10874
3.144
3.1782
3.2113
3.24327
3.27408
3.30372
3.33216
3.35939
3.38541
3.41021
3.43381
3.45621
3.47742
3.49745
3.51631
3.53403
3.55065
3.56623
3.58076
3.59438
3.60706
3.61869
3.62942
3.63914
3.64796
3.65584
3.66287
3.66914
3.67445
3.67881
3.68225
3.68485
3.68653
3.68687
3.68585
3.68438
3.68187
3.67838
3.67405
3.66868
3.6622
3.65444
3.64531
3.63476
3.62279
3.6093
3.59425
3.57756
3.55919
3.53907
3.51714
3.49334
3.46763
3.43995
3.41026
3.37854
3.34479
3.30901
3.27122
3.23145
3.18973
3.14614
3.10073
3.05356
3.00472
2.95429
2.90238
2.84915
2.79477
2.73951
2.68368
2.62741
2.5708
2.51388
2.45677
2.39964
2.34267
2.28604
2.22992
2.17443
2.11967
2.06576
2.01286
1.96108
1.91049
1.86099
1.81274
1.76587
1.72045
1.67618
1.63323
1.59179
1.55183
1.51331
1.4763
1.44078
1.40676
1.37424
1.34348
1.31393
1.2896
1.2562
0.0713017
0.143356
0.183346
0.212205
0.236203
0.257606
0.277558
0.296792
0.315868
0.335256
0.355375
0.376589
0.399198
0.423428
0.449426
0.477266
0.506963
0.538491
0.571806
0.606853
0.643581
0.681941
0.721885
0.76336
0.806306
0.850651
0.896315
0.943209
0.991244
1.04032
1.09034
1.14119
1.19277
1.24498
1.29772
1.3509
1.40446
1.45831
1.5124
1.56666
1.62104
1.6755
1.73001
1.78453
1.83903
1.89349
1.9479
2.00223
2.05648
2.11064
2.16471
2.21867
2.27252
2.32626
2.37988
2.43338
2.48674
2.53996
2.59303
2.64592
2.69863
2.75112
2.80337
2.85534
2.907
2.9583
3.00921
3.05966
3.10961
3.15899
3.20774
3.2558
3.30309
3.34956
3.39512
3.43972
3.48327
3.52573
3.56701
3.60707
3.64585
3.68329
3.71935
3.754
3.78718
3.81889
3.84909
3.87777
3.90494
3.93058
3.95471
3.97733
3.99847
4.01814
4.0364
4.05327
4.06882
4.08308
4.09607
4.10777
4.11824
4.12748
4.13554
4.14244
4.14822
4.15291
4.15641
4.1589
4.15994
4.15963
4.15831
4.15577
4.15207
4.14734
4.14145
4.1344
4.12618
4.11672
4.10596
4.09379
4.08016
4.06503
4.04834
4.03004
4.01006
3.98834
3.96482
3.93944
3.91215
3.88291
3.85165
3.81833
3.78293
3.74543
3.70581
3.66409
3.62027
3.5744
3.52651
3.47667
3.42492
3.37135
3.31605
3.25914
3.20078
3.14116
3.08047
3.01895
2.95684
2.89431
2.83145
2.76836
2.70516
2.64203
2.57914
2.51669
2.45484
2.39375
2.33353
2.27433
2.21625
2.15943
2.10394
2.04978
1.99703
1.9458
1.89615
1.848
1.80139
1.75643
1.71303
1.67108
1.63077
1.59208
1.55502
1.51968
1.48627
1.45469
1.42737
1.39379
0.0826288
0.170285
0.216881
0.250147
0.277625
0.302016
0.324665
0.346412
0.367878
0.389566
0.411912
0.43529
0.460011
0.486319
0.514386
0.544315
0.576152
0.609897
0.645525
0.682991
0.722248
0.763241
0.805918
0.850217
0.896074
0.943417
0.992167
1.04224
1.09354
1.14598
1.19947
1.25389
1.30916
1.36519
1.42188
1.47915
1.53692
1.59512
1.65369
1.71257
1.7717
1.83103
1.89051
1.95012
2.00981
2.06956
2.12935
2.18915
2.24896
2.30875
2.36851
2.42825
2.48794
2.54759
2.60719
2.66674
2.72621
2.78561
2.84492
2.90412
2.96319
3.02211
3.08085
3.13937
3.19764
3.2556
3.3132
3.37039
3.4271
3.48326
3.5388
3.59364
3.64769
3.70088
3.7531
3.80429
3.85434
3.90318
3.95071
3.99686
4.04155
4.0847
4.12624
4.16612
4.20428
4.24068
4.27527
4.30803
4.33894
4.368
4.3952
4.42056
4.44407
4.46578
4.48571
4.50392
4.52044
4.53532
4.54857
4.56023
4.57033
4.5789
4.58597
4.59159
4.59579
4.5986
4.59971
4.59935
4.5976
4.59445
4.58993
4.58403
4.57676
4.56817
4.55822
4.54689
4.53416
4.52
4.50436
4.48719
4.46844
4.44809
4.42608
4.40236
4.37688
4.34959
4.32043
4.28937
4.25636
4.22135
4.18431
4.14519
4.10398
4.06066
4.01523
3.96769
3.91806
3.86636
3.81266
3.75699
3.69944
3.6401
3.5791
3.51659
3.45273
3.38771
3.32172
3.25498
3.18768
3.12
3.05203
2.98389
2.91571
2.84768
2.77997
2.71277
2.64626
2.58059
2.5159
2.45233
2.39
2.32903
2.26949
2.21145
2.15495
2.10009
2.0469
1.99538
1.94557
1.89753
1.85126
1.80669
1.76391
1.72281
1.68341
1.64588
1.61038
1.57707
1.54739
1.51349
0.0925212
0.194912
0.247843
0.28541
0.316296
0.343588
0.368808
0.392894
0.416515
0.440205
0.464416
0.489534
0.515887
0.543735
0.573279
0.604653
0.637938
0.673166
0.710338
0.749427
0.790394
0.833191
0.877764
0.924049
0.971983
1.02149
1.0725
1.12493
1.17869
1.2337
1.28986
1.34709
1.4053
1.4644
1.52431
1.58495
1.64625
1.70813
1.77052
1.83337
1.89661
1.96019
2.02407
2.0882
2.15255
2.21707
2.28174
2.34654
2.41145
2.47644
2.54152
2.60665
2.67185
2.73709
2.80238
2.86769
2.93304
2.9984
3.06376
3.12911
3.19443
3.25969
3.32485
3.38988
3.45474
3.51938
3.58373
3.64774
3.71132
3.7744
3.83689
3.8987
3.95974
4.01988
4.07905
4.13711
4.19397
4.24951
4.30362
4.3562
4.40715
4.45636
4.50375
4.54923
4.59272
4.63415
4.67348
4.71065
4.74562
4.77839
4.80894
4.83727
4.86338
4.88731
4.90908
4.92873
4.94631
4.96186
4.97541
4.98701
4.99668
5.00448
5.01043
5.0146
5.01686
5.0173
5.0158
5.01271
5.00794
5.00148
4.99337
4.98362
4.97226
4.95929
4.94473
4.92856
4.91077
4.89134
4.87026
4.8475
4.82305
4.79687
4.76894
4.73922
4.70767
4.67427
4.63898
4.60177
4.5626
4.52145
4.4783
4.43312
4.3859
4.33663
4.28531
4.23195
4.17657
4.1192
4.05991
3.99876
3.93585
3.8713
3.80525
3.73784
3.66925
3.59963
3.52918
3.45808
3.38649
3.31456
3.24241
3.17016
3.09794
3.02592
2.95429
2.88323
2.81292
2.74351
2.67516
2.608
2.54217
2.47776
2.41488
2.35359
2.29396
2.23605
2.17991
2.12554
2.07299
2.02232
1.97353
1.92663
1.88163
1.83851
1.7973
1.75809
1.72093
1.68613
1.65451
1.62004
0.102839
0.217148
0.275763
0.317309
0.351392
0.381421
0.409063
0.435329
0.460929
0.486419
0.512262
0.538854
0.566534
0.595581
0.626218
0.658609
0.692867
0.729057
0.767205
0.80731
0.849349
0.893282
0.939063
0.986634
1.03593
1.08689
1.13944
1.1935
1.24899
1.30584
1.36397
1.42329
1.48373
1.5452
1.60764
1.67096
1.73509
1.79997
1.86552
1.93169
1.99841
2.06564
2.13331
2.20139
2.26982
2.33858
2.40762
2.47693
2.54647
2.61623
2.68619
2.75634
2.82667
2.89717
2.96783
3.03864
3.1096
3.1807
3.25193
3.32326
3.39468
3.46616
3.53767
3.60918
3.68062
3.75195
3.8231
3.89401
3.96458
4.03473
4.10435
4.17334
4.24159
4.30897
4.37536
4.44061
4.50461
4.56721
4.62828
4.68768
4.74529
4.80098
4.85462
4.90611
4.95535
5.00224
5.0467
5.08866
5.12808
5.16493
5.19916
5.23078
5.25979
5.28619
5.31002
5.33132
5.35013
5.36649
5.38044
5.39203
5.40132
5.40834
5.4131
5.41545
5.41566
5.41376
5.40975
5.40371
5.39565
5.3856
5.37358
5.35962
5.34375
5.326
5.30637
5.28489
5.26155
5.23636
5.20933
5.18045
5.14974
5.11717
5.08275
5.04646
5.0083
4.96825
4.92629
4.88244
4.83666
4.78896
4.73932
4.68775
4.63424
4.57881
4.52145
4.46219
4.40107
4.33814
4.27348
4.20716
4.13932
4.07007
3.99953
3.92787
3.85522
3.78174
3.70759
3.63291
3.55785
3.48253
3.40705
3.33155
3.25614
3.18098
3.10627
3.03218
2.95887
2.8865
2.81524
2.74521
2.67655
2.60938
2.54378
2.47984
2.41763
2.35721
2.29862
2.2419
2.18706
2.13417
2.08325
2.03432
1.98741
1.9425
1.89964
1.85892
1.82043
1.78438
1.75117
1.716
0.113979
0.236848
0.30033
0.345362
0.382305
0.414824
0.444693
0.472974
0.500402
0.527544
0.554866
0.582768
0.611594
0.641634
0.673126
0.706258
0.741169
0.777951
0.81666
0.857316
0.899918
0.944442
0.990852
1.0391
1.08914
1.1409
1.19433
1.24935
1.3059
1.36391
1.42332
1.48404
1.54601
1.60916
1.67342
1.73872
1.80499
1.87218
1.94022
2.00903
2.07858
2.14879
2.21963
2.29103
2.36295
2.43536
2.50822
2.5815
2.65517
2.72921
2.80359
2.87832
2.95337
3.02874
3.10442
3.18041
3.25669
3.33326
3.41011
3.48721
3.56456
3.64212
3.71987
3.79775
3.87572
3.95373
4.0317
4.10955
4.18719
4.26452
4.34142
4.41778
4.49345
4.5683
4.64218
4.71492
4.78638
4.85639
4.92478
4.99139
5.05606
5.11863
5.17895
5.23688
5.29229
5.34506
5.39508
5.44226
5.48654
5.52784
5.56614
5.6014
5.63363
5.66281
5.68899
5.71218
5.73243
5.74978
5.76429
5.776
5.78499
5.79128
5.79471
5.7955
5.79373
5.78949
5.78278
5.77365
5.76214
5.74829
5.73213
5.71369
5.69302
5.67015
5.6451
5.61792
5.58862
5.55724
5.5238
5.48833
5.45084
5.41137
5.36993
5.32655
5.28123
5.234
5.18486
5.13386
5.08099
5.02628
4.96976
4.91143
4.85133
4.78947
4.72591
4.66067
4.59381
4.52543
4.45559
4.38442
4.31202
4.23852
4.16404
4.0887
4.01264
3.93598
3.85885
3.78136
3.70362
3.62573
3.54777
3.46986
3.3921
3.31465
3.23767
3.16135
3.08583
3.01128
2.93784
2.86565
2.79485
2.72555
2.65786
2.59186
2.52763
2.46522
2.40468
2.34606
2.28939
2.23469
2.18202
2.13141
2.08288
2.03645
1.99215
1.95009
1.91035
1.87312
1.8386
1.80272
0.123869
0.253465
0.32108
0.369113
0.408555
0.443287
0.475162
0.505281
0.53439
0.563056
0.591744
0.620849
0.650709
0.681618
0.713822
0.747521
0.782872
0.819991
0.858956
0.89981
0.942573
0.98724
1.03379
1.0822
1.13242
1.18441
1.23811
1.29348
1.35045
1.40897
1.46898
1.53043
1.59325
1.65738
1.72277
1.78935
1.85707
1.92586
1.99567
2.06645
2.13812
2.21065
2.28398
2.35806
2.43284
2.50829
2.58437
2.66104
2.73828
2.81607
2.89437
2.97319
3.05251
3.13233
3.21263
3.29341
3.37466
3.45638
3.53856
3.62117
3.70421
3.78765
3.87146
3.95558
4.03998
4.12458
4.20932
4.29411
4.37884
4.46341
4.54768
4.63152
4.71477
4.79728
4.87887
4.95936
5.03855
5.11626
5.1923
5.26646
5.33855
5.40838
5.47577
5.54054
5.60252
5.66158
5.71757
5.77037
5.81988
5.86604
5.90876
5.94803
5.9838
6.01608
6.04488
6.07023
6.09216
6.11073
6.12597
6.13796
6.14677
6.15231
6.15465
6.15397
6.15032
6.14375
6.1343
6.12203
6.10698
6.0892
6.06873
6.04562
6.01992
5.99167
5.96093
5.92774
5.89215
5.8542
5.81396
5.77146
5.72676
5.67992
5.63098
5.58
5.52703
5.47211
5.4153
5.35665
5.29623
5.23407
5.17023
5.10478
5.03777
4.96926
4.89932
4.82803
4.75546
4.68172
4.60691
4.53115
4.45455
4.37722
4.29928
4.22083
4.14198
4.06281
3.98342
3.90388
3.82426
3.74462
3.66503
3.58555
3.50629
3.42738
3.34898
3.27125
3.19433
3.11837
3.04351
2.96989
2.89764
2.82689
2.75773
2.69027
2.62458
2.56071
2.49874
2.43869
2.38062
2.32455
2.27053
2.21859
2.16876
2.12108
2.07559
2.03238
1.99153
1.95321
1.91746
1.88095
0.132205
0.266774
0.337758
0.388291
0.429852
0.466492
0.500131
0.531888
0.562517
0.592578
0.622526
0.652742
0.683555
0.71525
0.748072
0.782226
0.817877
0.855156
0.894156
0.934944
0.977556
1.02201
1.06831
1.11643
1.16636
1.21806
1.2715
1.32664
1.38344
1.44186
1.50186
1.56338
1.62639
1.69083
1.75666
1.82384
1.8923
1.962
2.0329
2.10493
2.17804
2.2522
2.32735
2.40344
2.48043
2.55828
2.63696
2.71643
2.79666
2.87764
2.95933
3.04172
3.12482
3.2086
3.29308
3.37823
3.46407
3.55057
3.63773
3.72555
3.81399
3.90305
3.99268
4.08284
4.17348
4.26454
4.35594
4.44758
4.53935
4.63114
4.72279
4.81416
4.90508
4.99535
5.08479
5.17318
5.26031
5.34595
5.42988
5.51186
5.59166
5.66906
5.74384
5.81578
5.88469
5.95038
6.01268
6.07145
6.12656
6.1779
6.22539
6.26897
6.3086
6.34427
6.37597
6.40372
6.42757
6.44755
6.46372
6.47614
6.48488
6.48986
6.49131
6.48925
6.48375
6.47488
6.4627
6.44726
6.42862
6.40683
6.38195
6.35403
6.32313
6.28931
6.25264
6.21318
6.17101
6.12619
6.0788
6.02892
5.97662
5.922
5.86514
5.80612
5.74504
5.68197
5.61701
5.55028
5.48185
5.41183
5.3403
5.26739
5.19319
5.11783
5.0414
4.96399
4.88572
4.80672
4.72711
4.64702
4.56654
4.4858
4.40489
4.32388
4.24284
4.16183
4.0809
4.00007
3.91938
3.83883
3.75846
3.67829
3.5984
3.51889
3.43993
3.36164
3.28416
3.2076
3.1321
3.0578
2.98483
2.91331
2.84336
2.77506
2.7085
2.64374
2.58085
2.51988
2.46087
2.40386
2.34889
2.29599
2.24521
2.19659
2.15017
2.10604
2.06427
2.02499
1.98816
1.95101
0.138886
0.276727
0.3503
0.402811
0.446085
0.484304
0.519431
0.5526
0.584561
0.615866
0.64695
0.678177
0.70986
0.742267
0.775634
0.810161
0.846013
0.883328
0.922209
0.962737
1.00497
1.04893
1.09466
1.14214
1.19138
1.24236
1.29508
1.3495
1.40561
1.46338
1.52279
1.58381
1.6464
1.71053
1.77616
1.84327
1.91182
1.98176
2.05306
2.12568
2.19957
2.27469
2.35099
2.42845
2.50701
2.58664
2.66731
2.74898
2.83162
2.91522
2.99975
3.0852
3.17155
3.25881
3.347
3.43608
3.52607
3.61696
3.70873
3.80138
3.89489
3.98924
4.08441
4.18034
4.27698
4.37428
4.47213
4.57046
4.66913
4.76803
4.86698
4.96583
5.06438
5.16243
5.25975
5.35611
5.45126
5.54495
5.63691
5.72687
5.81457
5.89974
5.98212
6.06147
6.13754
6.21012
6.279
6.344
6.40497
6.46176
6.51427
6.56242
6.60615
6.64542
6.68024
6.71061
6.73655
6.75813
6.77538
6.78837
6.79717
6.80181
6.80241
6.79904
6.79175
6.78063
6.76573
6.74712
6.72486
6.69901
6.66962
6.63678
6.60054
6.56099
6.51821
6.47228
6.42329
6.37133
6.3165
6.25892
6.19869
6.13593
6.07077
6.00332
5.93372
5.86209
5.78858
5.71335
5.63655
5.55831
5.47879
5.39814
5.31654
5.23417
5.15115
5.0676
4.98367
4.89951
4.81528
4.7311
4.64709
4.56334
4.47993
4.39691
4.31431
4.23214
4.1504
4.06908
3.98814
3.90755
3.82728
3.74732
3.6677
3.58847
3.50985
3.43189
3.35471
3.2784
3.20308
3.12889
3.05594
2.98439
2.91433
2.84586
2.77906
2.714
2.65075
2.58938
2.52992
2.47243
2.41693
2.36347
2.3121
2.26286
2.21581
2.17102
2.12854
2.08849
2.05076
2.01307
0.143869
0.283361
0.358744
0.412705
0.457274
0.496719
0.533034
0.567357
0.600434
0.632797
0.664865
0.696978
0.729426
0.76246
0.796297
0.831124
0.867101
0.904362
0.943017
0.983152
1.02484
1.06812
1.11304
1.15962
1.20787
1.25781
1.30943
1.36273
1.41771
1.47438
1.53273
1.59277
1.65442
1.71768
1.78255
1.84901
1.91704
1.98662
2.05772
2.13031
2.20436
2.27983
2.35669
2.43491
2.51445
2.59527
2.67736
2.76067
2.84519
2.93088
3.01773
3.10571
3.19479
3.28505
3.37647
3.46905
3.56276
3.6576
3.75356
3.85065
3.94885
4.04814
4.14848
4.24984
4.35217
4.45539
4.55942
4.66417
4.7695
4.87527
4.98133
5.08747
5.1935
5.29919
5.40429
5.50854
5.61166
5.71335
5.81333
5.91129
6.00692
6.09992
6.18999
6.27683
6.36018
6.43976
6.51535
6.58672
6.65368
6.71607
6.77376
6.82662
6.8746
6.91762
6.95569
6.98879
7.01696
7.04024
7.05867
7.07233
7.08129
7.08563
7.08546
7.08083
7.07177
7.0584
7.04078
7.01897
6.99303
6.96304
6.92907
6.89119
6.84948
6.80405
6.75497
6.70237
6.64633
6.587
6.52448
6.45892
6.39045
6.31924
6.24544
6.16922
6.09076
6.01025
5.92786
5.84383
5.75837
5.67167
5.58392
5.49535
5.40617
5.31657
5.22659
5.13661
5.04682
4.95743
4.86863
4.78054
4.69329
4.60696
4.52159
4.43721
4.35379
4.2713
4.18966
4.10881
4.02864
3.94906
3.86997
3.79131
3.71305
3.63518
3.55782
3.48112
3.40514
3.32996
3.25569
3.18242
3.1103
3.03947
2.97004
2.90209
2.83572
2.77097
2.70795
2.64673
2.58735
2.52985
2.47428
2.42068
2.36911
2.31961
2.27224
2.22707
2.18413
2.14353
2.10512
2.06704
0.147195
0.286829
0.363211
0.418085
0.463526
0.503833
0.541016
0.576212
0.610153
0.643359
0.676225
0.709068
0.742154
0.775708
0.809928
0.844983
0.881019
0.918163
0.956521
0.996183
1.03722
1.0797
1.12368
1.16919
1.21627
1.26497
1.31525
1.36713
1.42066
1.47587
1.5328
1.59151
1.65187
1.71391
1.77764
1.84305
1.91014
1.97891
2.04933
2.1214
2.1951
2.27039
2.34727
2.4257
2.50565
2.58712
2.67006
2.75446
2.8403
2.92756
3.01621
3.10624
3.19763
3.29048
3.38473
3.48037
3.57739
3.67577
3.77547
3.87657
3.97904
4.08284
4.18795
4.29432
4.40192
4.51067
4.62048
4.73126
4.84286
4.95515
5.06794
5.18104
5.29423
5.40724
5.51983
5.63169
5.74252
5.852
5.9598
6.06557
6.16897
6.26966
6.36729
6.46153
6.55207
6.6386
6.72085
6.79856
6.8715
6.93948
7.00234
7.05993
7.11216
7.15895
7.20028
7.23614
7.26654
7.29151
7.31113
7.32545
7.33457
7.33857
7.33764
7.33174
7.32088
7.30522
7.28481
7.25971
7.23
7.19576
7.15706
7.11399
7.06666
7.01516
6.9596
6.90011
6.83681
6.76987
6.69941
6.62561
6.54865
6.46873
6.38604
6.3008
6.21324
6.12358
6.03209
5.93902
5.84445
5.74866
5.65206
5.55499
5.4578
5.36072
5.2645
5.16894
5.07415
4.98036
4.88776
4.79652
4.70674
4.61848
4.53179
4.44664
4.36298
4.28072
4.19976
4.11994
4.04113
3.96316
3.88587
3.80916
3.73293
3.65713
3.58214
3.5078
3.43411
3.36112
3.28891
3.21756
3.1471
3.0778
3.00976
2.94308
2.87782
2.81404
2.75187
2.69138
2.63262
2.57564
2.52047
2.46718
2.41581
2.36643
2.31909
2.27385
2.23074
2.18985
2.151
2.11272
0.148719
0.286936
0.363677
0.419031
0.464965
0.50579
0.54352
0.579294
0.613834
0.647645
0.681102
0.714498
0.748074
0.782031
0.816542
0.851754
0.887798
0.924785
0.962815
1.00197
1.04234
1.08398
1.12695
1.17133
1.21716
1.26455
1.31346
1.36393
1.41598
1.46965
1.52495
1.58189
1.64051
1.70087
1.76301
1.82693
1.89266
1.9602
2.02955
2.10072
2.1737
2.24848
2.32505
2.40338
2.48347
2.56529
2.64883
2.73406
2.82096
2.90953
2.99973
3.09154
3.18493
3.27994
3.37656
3.47479
3.57465
3.67611
3.77917
3.88387
3.99017
4.09801
4.20739
4.31828
4.43063
4.54437
4.65942
4.77567
4.89299
5.01123
5.1302
5.2497
5.36947
5.48927
5.6088
5.72775
5.84579
5.96255
6.07769
6.19083
6.30157
6.40955
6.51437
6.61566
6.71307
6.80625
6.89488
6.97867
7.05737
7.13073
7.19856
7.26069
7.31701
7.36742
7.41186
7.45032
7.48281
7.50936
7.53002
7.54488
7.55402
7.55752
7.55575
7.54843
7.53567
7.51757
7.49422
7.46568
7.43203
7.39335
7.34974
7.3013
7.24812
7.19034
7.12808
7.06148
6.99069
6.91592
6.83731
6.75505
6.6694
6.58057
6.48878
6.39399
6.29669
6.19723
6.09596
5.99333
5.88993
5.78604
5.68171
5.57732
5.47328
5.36985
5.26779
5.16646
5.0665
4.96823
4.87188
4.77762
4.68558
4.5958
4.5083
4.42302
4.33985
4.25867
4.17929
4.10151
4.02509
3.94981
3.87543
3.80178
3.72871
3.65603
3.58401
3.51258
3.44174
3.3715
3.30193
3.23311
3.16512
3.09827
3.03252
2.96795
2.90462
2.84255
2.78189
2.72275
2.66519
2.60926
2.555
2.50247
2.45175
2.4029
2.35595
2.31098
2.268
2.22709
2.18806
2.14978
0.14901
0.284933
0.361268
0.416448
0.462334
0.503204
0.541062
0.577031
0.611823
0.645926
0.679696
0.713405
0.747273
0.781477
0.816167
0.851471
0.8875
0.924351
0.962113
1.00086
1.04068
1.08162
1.12375
1.16713
1.2118
1.25779
1.30512
1.35388
1.40417
1.45604
1.50956
1.56479
1.62175
1.68049
1.74106
1.80349
1.86781
1.93407
2.00227
2.07243
2.14457
2.21868
2.29477
2.37283
2.45285
2.53483
2.61874
2.70457
2.7923
2.88192
2.9734
3.06674
3.16191
3.25892
3.35779
3.4585
3.56104
3.6654
3.77152
3.87943
3.98912
4.10056
4.21375
4.32861
4.44514
4.56327
4.68293
4.804
4.92636
5.04984
5.17427
5.29941
5.42504
5.55087
5.6766
5.80189
5.9264
6.04975
6.17154
6.29137
6.40883
6.52348
6.63491
6.74271
6.84646
6.94579
7.04034
7.12978
7.2138
7.29215
7.36458
7.4309
7.49097
7.54465
7.59189
7.63263
7.66689
7.69468
7.71607
7.73113
7.74002
7.74257
7.73974
7.73068
7.71568
7.69482
7.66817
7.63582
7.59784
7.55434
7.50542
7.45119
7.39177
7.3273
7.25792
7.1838
7.10509
7.02182
6.93428
6.84277
6.74756
6.649
6.54744
6.44355
6.33728
6.229
6.11908
6.00806
5.89667
5.7843
5.67173
5.55949
5.44805
5.33776
5.22908
5.12218
5.01743
4.91515
4.8156
4.71895
4.62533
4.53479
4.4473
4.36277
4.28105
4.20194
4.12517
4.05047
3.97752
3.90601
3.83564
3.76616
3.69736
3.62908
3.56133
3.49405
3.42724
3.3609
3.29507
3.22979
3.16507
3.10123
3.0383
2.97637
2.91549
2.85563
2.7972
2.74012
2.68443
2.63017
2.5774
2.52615
2.47653
2.42861
2.38245
2.33809
2.29556
2.25492
2.21596
2.17799
0.147893
0.279774
0.355019
0.409597
0.455092
0.495719
0.53346
0.569422
0.6043
0.638561
0.672541
0.70649
0.7406
0.775026
0.809892
0.845305
0.881355
0.918119
0.955673
0.994084
1.03342
1.07375
1.11513
1.15763
1.20131
1.24627
1.29256
1.34023
1.38936
1.44003
1.49232
1.54629
1.602
1.65952
1.7189
1.7802
1.84347
1.90876
1.97611
2.04555
2.1171
2.19078
2.26661
2.34457
2.42469
2.50693
2.59131
2.67779
2.76636
2.85701
2.94971
3.04444
3.14119
3.23994
3.34068
3.44342
3.54812
3.65477
3.76336
3.87389
3.98631
4.10061
4.2167
4.33456
4.45422
4.57561
4.69865
4.82324
4.94927
5.07657
5.20497
5.33426
5.46418
5.59448
5.72482
5.85488
5.98428
6.11265
6.23957
6.36461
6.48733
6.60726
6.72396
6.83697
6.94585
7.05016
7.14953
7.24356
7.33194
7.41434
7.49051
7.56021
7.62326
7.67952
7.72889
7.7713
7.80674
7.83522
7.85681
7.87157
7.87964
7.88105
7.87669
7.86554
7.84794
7.82396
7.79369
7.75721
7.7146
7.66598
7.6114
7.55097
7.48485
7.41321
7.33621
7.25406
7.16698
7.07544
6.97956
6.87955
6.77576
6.66861
6.55873
6.44573
6.33029
6.21288
6.09396
5.97406
5.85366
5.73301
5.61262
5.49304
5.37477