/*--------------------------------*- C++ -*----------------------------------*\
| =========                 |                                                 |
| \\      /  F ield         | OpenFOAM: The Open Source CFD Toolbox           |
|  \\    /   O peration     | Version:  2406                                  |
|   \\  /    A nd           | Website:  www.openfoam.com                      |
|    \\/     M anipulation  |                                                 |
\*---------------------------------------------------------------------------*/
FoamFile
{
    version     2.0;
    format      ascii;
    arch        "LSB;label=32;scalar=64";
    class       volScalarField;
    location    "100";
    object      nut;
}
// * * * * * * * * * * * * * * * * * * * * * * * * * * * * * * * * * * * * * //

dimensions      [0 2 -1 0 0 0 0];

internalField   nonuniform List<scalar> 
12225
(
2.70742e-05
3.55747e-05
4.05233e-05
4.31929e-05
4.44522e-05
4.4966e-05
4.49789e-05
4.47508e-05
4.45708e-05
4.42073e-05
4.38629e-05
4.3534e-05
4.32388e-05
4.29606e-05
4.27283e-05
4.24984e-05
4.23369e-05
4.2129e-05
0.000213019
8.46358e-05
5.59097e-05
4.40613e-05
3.83783e-05
3.53538e-05
3.38605e-05
3.30694e-05
3.28545e-05
3.2877e-05
3.32117e-05
3.36009e-05
3.42235e-05
3.47895e-05
3.55755e-05
3.62236e-05
3.70609e-05
3.77332e-05
0.000657235
0.000306452
0.000194069
0.000142098
0.00011325
9.45177e-05
8.20543e-05
7.33414e-05
6.68332e-05
6.19978e-05
5.8085e-05
5.51548e-05
5.25925e-05
5.07581e-05
4.90005e-05
4.78399e-05
4.67749e-05
4.53948e-05
0.000863166
0.000609424
0.000451701
0.000350818
0.000289358
0.000246537
0.000216736
0.000194365
0.000177832
0.000164391
0.000154138
0.0001452
0.00013832
0.000131911
0.000127037
0.000122169
0.000118885
0.000113765
0.000877473
0.000776425
0.000690939
0.000591908
0.000517383
0.000458148
0.000413547
0.000377333
0.000349769
0.000326115
0.000308041
0.000291501
0.000279126
0.000266853
0.000258173
0.000248542
0.000242756
0.000233711
0.00085842
0.000835301
0.000807316
0.000753096
0.00069943
0.000648303
0.000604895
0.000565969
0.000534308
0.000505517
0.000482655
0.000460936
0.000444327
0.000427365
0.000415307
0.000401509
0.000393132
0.000380539
0.00085426
0.000849546
0.000840716
0.000823052
0.000798617
0.000768503
0.000739223
0.00070963
0.000683442
0.00065785
0.000636352
0.000614983
0.00059793
0.000580051
0.000566851
0.000551579
0.00054191
0.000527338
0.00085239
0.000851592
0.000849792
0.000844533
0.000835951
0.000824539
0.000810201
0.00079351
0.000777299
0.000760097
0.000744664
0.000728424
0.000714736
0.000699973
0.000688418
0.000675066
0.000665915
0.000652589
0.000851903
0.00085148
0.000851079
0.000849883
0.000847547
0.000843624
0.000838605
0.000831293
0.000823677
0.000815037
0.00080636
0.000796633
0.000787902
0.000778204
0.000770011
0.000760693
0.000753507
0.000743798
0.000851815
0.000851373
0.000851073
0.00085061
0.000850036
0.000848812
0.000847337
0.000844868
0.000842012
0.000838327
0.000834534
0.000829907
0.000825482
0.000820349
0.000815667
0.000810388
0.000805757
0.000799926
0.000851799
0.000851357
0.000851021
0.000850624
0.000850326
0.000849826
0.000849341
0.000848523
0.000847613
0.000846273
0.00084489
0.000843031
0.000841232
0.000838922
0.000836869
0.000834168
0.000832123
0.000828943
0.000851792
0.000851359
0.000851001
0.000850611
0.000850307
0.000849939
0.000849634
0.000849214
0.00084882
0.000848242
0.000847686
0.00084689
0.000846156
0.000845116
0.000844242
0.000842952
0.000842019
0.000840478
0.000851787
0.000851362
0.000850989
0.000850608
0.000850281
0.000849937
0.000849647
0.000849322
0.000849045
0.000848703
0.000848406
0.000848011
0.000847671
0.000847195
0.000846804
0.000846233
0.000845797
0.000845131
0.000851783
0.000851364
0.00085098
0.000850605
0.000850264
0.000849926
0.000849623
0.000849318
0.000849046
0.000848763
0.000848513
0.00084824
0.000847999
0.000847725
0.000847485
0.0008472
0.000846952
0.000846653
0.000851781
0.000851364
0.000850974
0.0008506
0.000850252
0.000849916
0.000849604
0.000849302
0.000849021
0.000848748
0.000848493
0.000848243
0.000848011
0.000847781
0.000847565
0.00084735
0.000847147
0.000846944
0.00085178
0.000851363
0.000850969
0.000850596
0.000850243
0.000849907
0.000849589
0.000849287
0.000849
0.000848726
0.000848466
0.000848217
0.000847981
0.000847753
0.000847537
0.000847329
0.00084713
0.000846938
0.000851779
0.000851362
0.000850967
0.000850592
0.000850236
0.000849899
0.000849579
0.000849274
0.000848985
0.000848708
0.000848445
0.000848194
0.000847954
0.000847724
0.000847505
0.000847295
0.000847094
0.000846901
0.000851779
0.000851362
0.000850965
0.000850589
0.000850233
0.000849894
0.000849572
0.000849266
0.000848974
0.000848696
0.00084843
0.000848177
0.000847935
0.000847703
0.000847481
0.000847269
0.000847066
0.000846871
0.000851779
0.000851362
0.000850965
0.000850589
0.000850232
0.000849892
0.000849569
0.000849262
0.000848969
0.00084869
0.000848423
0.000848168
0.000847925
0.000847692
0.000847469
0.000847255
0.000847051
0.000846855
0.000851779
0.000851363
0.000850966
0.000850591
0.000850234
0.000849895
0.000849572
0.000849265
0.000848972
0.000848693
0.000848426
0.000848171
0.000847927
0.000847693
0.000847468
0.000847254
0.000847047
0.000846849
0.000851779
0.000851364
0.000850968
0.000850595
0.000850238
0.000849901
0.000849578
0.000849273
0.000848977
0.000848698
0.000848424
0.000848164
0.000847906
0.000847662
0.000847414
0.000847181
0.00084694
0.000846716
0.000851778
0.000851368
0.000850969
0.000850603
0.000850243
0.00084991
0.000849572
0.000849252
0.000848914
0.000848584
0.000848219
0.00084786
0.00084745
0.000847052
0.000846586
0.00084615
0.000845625
0.000845157
0.000851779
0.000851382
0.000850972
0.000850624
0.000850209
0.000849788
0.000849232
0.000848613
0.000847799
0.00084689
0.000845761
0.000844549
0.000843111
0.000841647
0.000839937
0.000838307
0.000836355
0.000834665
0.000851855
0.000851467
0.000850932
0.000850394
0.000849125
0.000847456
0.000844943
0.000841932
0.000838061
0.000833829
0.000828939
0.000823896
0.000818409
0.000812972
0.0008072
0.000801652
0.000795751
0.000790684
0.000852784
0.00085138
0.000849188
0.000845093
0.00083688
0.000827808
0.000815731
0.000802799
0.000788338
0.000774321
0.000759601
0.000746001
0.000732027
0.000719578
0.000706697
0.000695708
0.000683939
0.000674536
0.000858209
0.000842298
0.000828953
0.000803018
0.000769235
0.000735453
0.000700758
0.000669652
0.000639422
0.000613506
0.000588504
0.000567623
0.000547174
0.000530504
0.000513696
0.000500429
0.000486375
0.000475868
0.000864325
0.000785611
0.000712679
0.00062831
0.000558233
0.000503059
0.000455683
0.000418805
0.000386537
0.000361502
0.000338653
0.000321112
0.000304284
0.000291635
0.000278764
0.000269397
0.00025921
0.000252142
0.000775908
0.000540094
0.000397897
0.000312958
0.000258114
0.000219605
0.000190461
0.000169523
0.000152501
0.00013994
0.000129038
0.000120957
0.000113465
0.00010801
0.000102567
9.87409e-05
9.46176e-05
9.18424e-05
0.000323566
0.000164845
0.000111408
8.60697e-05
7.08189e-05
6.13468e-05
5.5012e-05
5.08783e-05
4.79481e-05
4.60035e-05
4.45868e-05
4.36831e-05
4.30371e-05
4.26912e-05
4.24542e-05
4.24367e-05
4.24359e-05
4.26209e-05
3.26576e-05
3.90516e-05
4.38921e-05
4.69711e-05
4.93653e-05
5.11688e-05
5.25333e-05
5.3457e-05
5.41115e-05
5.44587e-05
5.46858e-05
5.46897e-05
5.46458e-05
5.45399e-05
5.43654e-05
5.41562e-05
5.39295e-05
5.36908e-05
5.76915e-06
1.72461e-05
2.09484e-05
2.36084e-05
2.55516e-05
2.70009e-05
2.80996e-05
2.90943e-05
2.99487e-05
3.07177e-05
3.14716e-05
3.22645e-05
3.31534e-05
3.41908e-05
3.54299e-05
3.68042e-05
3.82502e-05
3.97562e-05
4.13274e-05
4.29598e-05
4.466e-05
4.6426e-05
4.82714e-05
5.01777e-05
5.21302e-05
5.41173e-05
5.61372e-05
5.81633e-05
6.01946e-05
6.22136e-05
6.42172e-05
6.6193e-05
6.81396e-05
7.00473e-05
7.19166e-05
7.37404e-05
7.55217e-05
7.72554e-05
7.89457e-05
8.0589e-05
8.21904e-05
8.37469e-05
8.52641e-05
8.67398e-05
8.81794e-05
8.95809e-05
9.09495e-05
9.22836e-05
9.35879e-05
9.48619e-05
9.611e-05
9.73306e-05
9.85277e-05
9.96994e-05
0.000100849
0.000101975
0.000103081
0.000104163
0.000105225
0.000106265
0.000107284
0.000108281
0.000109257
0.00011021
0.000111141
0.000112049
0.000112933
0.000113794
0.000114631
0.000115444
0.000116232
0.000116995
0.00011773
0.000118437
0.000119115
0.000119765
0.000120385
0.000120977
0.00012154
0.000122076
0.000122582
0.000123062
0.000123514
0.00012394
0.000124339
0.000124716
0.000125069
0.000125399
0.000125706
0.000125989
0.000126238
0.000126436
0.000126536
0.000126436
0.000125598
0.000128415
0.00012826
0.000126565
0.000128891
0.00012718
0.000128894
0.000127354
0.000129586
0.000128978
0.000128799
0.000127676
0.000128369
0.000129725
0.000127706
0.000128535
0.000129819
0.000129294
0.000129058
0.000127649
0.00012818
0.000128305
0.000128521
0.000127191
0.000127299
0.000127022
0.000127675
0.000127145
0.000126885
0.000126512
0.000126124
0.000125696
0.000125233
0.000124736
0.000124203
0.000123643
0.000123041
0.000122399
0.000121717
0.000120995
0.00012023
0.000119425
0.000118594
0.000117717
0.000116794
0.000115829
0.000114805
0.000113751
0.000112657
0.000111523
0.000110369
0.00010915
0.000107828
0.000106691
0.000105101
0.000102934
0.000101861
0.000100994
0.00010013
9.92399e-05
9.83282e-05
9.73914e-05
9.64378e-05
9.54964e-05
9.4524e-05
9.35032e-05
9.24687e-05
9.14253e-05
9.04797e-05
8.94677e-05
8.84334e-05
8.73964e-05
8.63753e-05
8.53667e-05
8.43669e-05
8.33812e-05
8.24131e-05
8.14615e-05
8.0526e-05
7.96078e-05
7.87036e-05
7.77861e-05
7.69566e-05
7.57329e-05
7.5614e-05
7.25319e-05
9.6576e-06
5.92829e-05
0.000120424
0.000166749
0.000198565
0.000220536
0.000235305
0.000244257
0.000248899
0.000251645
0.000253882
0.000256337
0.000259309
0.000262826
0.000266734
0.00027092
0.000275511
0.000280675
0.000286488
0.000293004
0.000300268
0.00030832
0.000317189
0.000326912
0.000337502
0.000348949
0.000361221
0.000374263
0.000388049
0.000402531
0.000417608
0.000433187
0.000449164
0.000465444
0.000481921
0.000498501
0.000515092
0.000531624
0.000548032
0.000564264
0.000580274
0.000596031
0.000611507
0.000626688
0.000641559
0.000656116
0.000670348
0.000684252
0.000697811
0.000711069
0.000724069
0.000736826
0.00074935
0.000761654
0.00077375
0.000785646
0.000797351
0.000808871
0.000820211
0.000831373
0.00084236
0.000853169
0.000863798
0.000874242
0.000884496
0.000894552
0.000904403
0.00091404
0.000923459
0.00093265
0.000941616
0.00095036
0.000958824
0.000966979
0.000974819
0.000982325
0.000989493
0.000996306
0.00100277
0.00100886
0.0010146
0.00101997
0.001025
0.00102968
0.00103404
0.0010381
0.00104187
0.00104538
0.00104869
0.00105183
0.00105491
0.001058
0.00106121
0.0010647
0.00106871
0.00107392
0.00107501
0.00107523
0.00107984
0.00108027
0.00108476
0.00108657
0.00109174
0.00109413
0.00109741
0.00109987
0.00110629
0.00110826
0.00110743
0.00110784
0.00111074
0.00111407
0.00111431
0.00111307
0.0011164
0.00111778
0.00111841
0.00111842
0.00112001
0.0011207
0.00112345
0.0011246
0.00112601
0.0011271
0.00112798
0.00112858
0.00112888
0.00112887
0.00112853
0.00112794
0.00112699
0.00112549
0.00112356
0.00112117
0.0011183
0.00111493
0.00111109
0.00110682
0.00110205
0.0010968
0.00109102
0.00108469
0.00107785
0.00107053
0.00106282
0.00105466
0.00104573
0.00103685
0.00102746
0.00101349
0.000997913
0.000981573
0.000964798
0.00094775
0.000930538
0.000913273
0.000895949
0.000878745
0.000861387
0.000844235
0.000827283
0.000810614
0.000794487
0.000778493
0.000762785
0.000747439
0.00073249
0.000717838
0.000703492
0.000689511
0.000675886
0.000662604
0.000649627
0.00063704
0.000624477
0.000612561
0.000599801
0.000587381
0.00057495
0.000519671
1.21654e-05
8.80738e-05
0.000183736
0.000263413
0.000325544
0.000372587
0.000407651
0.000433353
0.000451918
0.000465477
0.000475838
0.000484429
0.000492312
0.000500244
0.000508745
0.000518192
0.000528872
0.00054098
0.000554625
0.000569861
0.000586715
0.000605201
0.000625321
0.000647062
0.000670376
0.000695158
0.000721492
0.000749801
0.000779766
0.000810811
0.000842666
0.000875145
0.000908094
0.000941363
0.000974793
0.00100822
0.00104146
0.00107444
0.00110709
0.00113933
0.0011711
0.00120236
0.00123308
0.00126324
0.00129283
0.00132184
0.00135028
0.00137816
0.00140549
0.0014323
0.00145862
0.00148447
0.00150988
0.00153487
0.00155944
0.00158362
0.00160743
0.00163087
0.00165395
0.00167668
0.00169906
0.00172108
0.00174276
0.00176407
0.00178502
0.00180559
0.00182576
0.00184552
0.00186485
0.00188373
0.00190215
0.00192008
0.00193749
0.00195435
0.00197063
0.00198632
0.00200139
0.00201582
0.0020296
0.00204272
0.00205518
0.00206697
0.00207812
0.00208862
0.00209851
0.0021078
0.00211653
0.00212475
0.00213252
0.00213991
0.00214702
0.00215392
0.00216067
0.00216729
0.00217364
0.00217935
0.0021831
0.00218688
0.00219198
0.00219559
0.00220063
0.00220464
0.00220955
0.00221336
0.00221737
0.00222172
0.0022265
0.00222838
0.00222994
0.00223203
0.00223487
0.00223791
0.00223957
0.00224024
0.00224251
0.00224237
0.00224277
0.00224288
0.00224373
0.00224352
0.00224458
0.00224459
0.00224434
0.00224356
0.00224225
0.00224034
0.0022378
0.00223456
0.00223062
0.00222594
0.00222048
0.00221412
0.00220691
0.0021988
0.00218977
0.00217982
0.00216894
0.00215715
0.00214444
0.0021308
0.00211621
0.00210068
0.00208427
0.002067
0.00204898
0.00203011
0.0020102
0.00198966
0.00196832
0.00194353
0.00191649
0.00188811
0.0018589
0.00182916
0.00179908
0.00176881
0.00173843
0.00170813
0.00167799
0.00164821
0.00161879
0.00159053
0.00156311
0.00153548
0.00150846
0.00148217
0.00145667
0.00143159
0.00140699
0.00138305
0.00135971
0.0013369
0.0013146
0.00129285
0.0012712
0.00125026
0.00122827
0.00120574
0.00118816
0.00111418
1.39975e-05
0.000115163
0.000236926
0.000339899
0.000422637
0.000487612
0.000537956
0.000576567
0.000606041
0.000628713
0.000646661
0.000661691
0.000675321
0.000688771
0.000702981
0.000718628
0.000736175
0.000755906
0.000777973
0.000802437
0.000829307
0.00085856
0.000890156
0.00092404
0.000960154
0.000998459
0.00103873
0.00108038
0.00112313
0.00116694
0.00121162
0.00125688
0.00130267
0.00134886
0.00139535
0.00144207
0.00148854
0.00153463
0.00158024
0.0016253
0.00166973
0.00171348
0.00175653
0.00179884
0.00184042
0.00188125
0.00192134
0.0019607
0.00199937
0.00203734
0.00207466
0.00211135
0.00214742
0.00218291
0.00221783
0.00225221
0.00228605
0.00231938
0.00235221
0.00238454
0.00241637
0.00244772
0.00247857
0.00250891
0.00253875
0.00256805
0.00259682
0.00262501
0.00265262
0.0026796
0.00270595
0.00273162
0.00275658
0.0027808
0.00280425
0.00282689
0.00284871
0.00286966
0.00288974
0.00290893
0.00292723
0.00294462
0.00296113
0.00297674
0.0029915
0.00300541
0.00301852
0.00303087
0.00304252
0.00305352
0.00306395
0.00307384
0.00308322
0.00309202
0.00310013
0.00310733
0.0031135
0.00311937
0.00312521
0.00313042
0.00313566
0.00314031
0.00314477
0.00314859
0.00315215
0.00315565
0.00315869
0.00316033
0.00316168
0.0031641
0.00316696
0.00316833
0.00316782
0.00316757
0.00316742
0.00316637
0.00316509
0.00316354
0.00316192
0.00315968
0.00315754
0.00315466
0.0031512
0.00314707
0.00314221
0.00313656
0.00313009
0.00312274
0.00311446
0.00310522
0.00309498
0.00308367
0.00307128
0.00305777
0.00304312
0.00302733
0.00301037
0.00299226
0.00297299
0.00295256
0.00293096
0.00290823
0.0028844
0.00285955
0.00283394
0.00280721
0.00277934
0.00275046
0.00272042
0.002688
0.00265355
0.00261763
0.00258071
0.00254308
0.00250496
0.00246655
0.00242797
0.0023894
0.002351
0.00231294
0.00227529
0.00223845
0.00220246
0.00216716
0.0021333
0.0021005
0.00206898
0.00203777
0.00200715
0.0019775
0.00194866
0.00192044
0.00189292
0.00186606
0.00183943
0.00181343
0.00178674
0.0017591
0.00173639
0.00166846
1.54324e-05
0.00013713
0.000282321
0.000405401
0.000505393
0.000585261
0.000648423
0.000698176
0.000737409
0.000768686
0.000794293
0.000816255
0.000836326
0.00085597
0.00087635
0.000898341
0.000922547
0.000949355
0.000978972
0.00101148
0.00104688
0.00108511
0.00112606
0.0011696
0.00121556
0.00126375
0.00131388
0.00136564
0.00141876
0.00147305
0.00152831
0.00158437
0.00164093
0.00169775
0.0017546
0.00181125
0.00186756
0.00192344
0.00197879
0.00203352
0.00208756
0.00214085
0.00219336
0.00224505
0.0022959
0.00234592
0.0023951
0.00244346
0.002491
0.00253775
0.00258372
0.00262895
0.00267346
0.00271726
0.00276038
0.00280285
0.00284467
0.00288587
0.00292646
0.00296644
0.00300583
0.00304462
0.00308281
0.00312039
0.00315736
0.00319369
0.00322937
0.00326437
0.00329867
0.00333223
0.00336502
0.00339701
0.00342815
0.00345842
0.00348776
0.00351614
0.00354353
0.00356989
0.0035952
0.00361944
0.00364258
0.00366463
0.00368557
0.00370541
0.00372416
0.00374183
0.00375845
0.00377406
0.00378869
0.00380238
0.00381518
0.00382712
0.00383821
0.0038484
0.00385764
0.00386585
0.00387309
0.00387963
0.00388559
0.00389085
0.00389555
0.00389956
0.00390295
0.00390568
0.00390791
0.0039097
0.00391085
0.00391156
0.00391207
0.00391282
0.00391242
0.00391109
0.00390894
0.00390639
0.00390349
0.00389994
0.00389597
0.00389157
0.00388677
0.00388143
0.00387568
0.00386924
0.00386212
0.00385425
0.00384558
0.00383606
0.00382566
0.00381433
0.00380201
0.00378867
0.00377427
0.00375876
0.0037421
0.00372427
0.00370525
0.003685
0.00366352
0.00364082
0.00361687
0.00359168
0.00356526
0.00353762
0.00350881
0.00347891
0.00344815
0.00341606
0.00338278
0.00334833
0.00331258
0.00327502
0.00323572
0.00319502
0.00315326
0.00311071
0.0030676
0.00302413
0.00298044
0.00293672
0.00289314
0.00284985
0.00280699
0.0027648
0.00272338
0.00268275
0.0026433
0.00260502
0.00256878
0.00253375
0.00249998
0.00246757
0.00243617
0.00240532
0.00237538
0.00234618
0.00231733
0.0022892
0.00226073
0.00223147
0.0022058
0.00214255
1.65712e-05
0.000156514
0.000322293
0.000463185
0.000578335
0.000671487
0.000746237
0.00080625
0.00085468
0.000894288
0.000927517
0.000956524
0.00098319
0.00100911
0.00103557
0.00106358
0.00109385
0.00112686
0.00116288
0.00120201
0.00124427
0.00128958
0.00133779
0.00138871
0.00144214
0.00149783
0.00155549
0.00161485
0.00167564
0.0017376
0.00180051
0.00186411
0.00192817
0.00199245
0.00205673
0.00212084
0.0021846
0.00224792
0.00231067
0.00237277
0.00243415
0.00249474
0.0025545
0.00261339
0.00267141
0.00272853
0.00278476
0.00284009
0.00289455
0.00294815
0.0030009
0.00305283
0.00310396
0.00315431
0.00320391
0.00325278
0.00330093
0.00334839
0.00339516
0.00344126
0.0034867
0.00353148
0.00357559
0.00361903
0.00366179
0.00370384
0.00374518
0.00378577
0.00382559
0.00386459
0.00390274
0.00394001
0.00397634
0.00401169
0.00404602
0.00407928
0.00411143
0.00414241
0.00417221
0.00420077
0.00422809
0.00425412
0.00427886
0.0043023
0.00432443
0.00434526
0.0043648
0.00438306
0.00440007
0.00441586
0.00443045
0.00444387
0.00445612
0.00446719
0.00447705
0.00448571
0.00449323
0.00449971
0.00450522
0.0045098
0.00451347
0.00451621
0.00451805
0.00451903
0.00451921
0.00451865
0.00451743
0.00451603
0.00451461
0.00451187
0.0045082
0.00450369
0.00449842
0.00449255
0.00448611
0.00447905
0.00447143
0.00446327
0.00445457
0.00444528
0.00443541
0.00442487
0.00441364
0.00440166
0.00438891
0.00437535
0.00436094
0.00434565
0.00432944
0.00431227
0.0042941
0.00427489
0.0042546
0.00423321
0.00421068
0.004187
0.00416216
0.00413613
0.00410891
0.0040805
0.00405091
0.00402013
0.00398821
0.00395518
0.00392112
0.0038859
0.00384953
0.00381199
0.00377317
0.00373286
0.00369107
0.00364798
0.00360383
0.00355885
0.00351325
0.00346722
0.00342093
0.00337454
0.00332823
0.00328215
0.00323645
0.00319131
0.00314686
0.00310319
0.00306054
0.00301902
0.00297902
0.00294062
0.0029042
0.0028697
0.0028369
0.00280541
0.00277518
0.00274568
0.0027165
0.00268804
0.00265943
0.00263037
0.0026034
0.00254812
1.75183e-05
0.000173258
0.000356896
0.000513645
0.000642518
0.000747916
0.000833526
0.000903299
0.000960606
0.00100836
0.00104913
0.00108513
0.00111833
0.00115037
0.00118264
0.0012162
0.00125185
0.00129015
0.00133142
0.00137583
0.00142341
0.00147407
0.00152768
0.00158402
0.00164288
0.00170399
0.00176708
0.00183186
0.00189807
0.00196544
0.00203373
0.00210268
0.00217206
0.00224166
0.00231127
0.00238072
0.00244986
0.00251856
0.00258671
0.00265421
0.00272099
0.002787
0.00285217
0.00291647
0.00297988
0.00304238
0.00310396
0.00316464
0.0032244
0.00328328
0.00334128
0.00339842
0.00345472
0.00351022
0.00356492
0.00361885
0.00367204
0.00372449
0.00377624
0.00382727
0.00387762
0.00392727
0.00397623
0.0040245
0.00407205
0.00411888
0.00416497
0.00421027
0.00425477
0.00429843
0.00434119
0.00438302
0.00442387
0.00446368
0.0045024
0.00453998
0.00457635
0.00461146
0.00464527
0.00467772
0.00470878
0.00473839
0.00476655
0.0047932
0.00481835
0.00484197
0.00486406
0.00488461
0.00490364
0.00492116
0.00493719
0.00495172
0.00496479
0.00497638
0.0049865
0.00499517
0.00500243
0.00500835
0.00501299
0.0050164
0.0050186
0.00501961
0.00501944
0.00501817
0.00501554
0.00501271
0.00500928
0.00500487
0.00499948
0.00499304
0.00498563
0.00497731
0.00496817
0.00495829
0.00494771
0.00493645
0.00492454
0.00491202
0.00489888
0.00488513
0.00487076
0.00485576
0.0048401
0.00482376
0.00480674
0.004789
0.00477054
0.00475132
0.00473131
0.00471049
0.00468882
0.00466626
0.00464279
0.00461838
0.00459299
0.00456661
0.00453922
0.0045108
0.00448134
0.00445083
0.00441926
0.00438665
0.00435301
0.00431835
0.0042827
0.00424601
0.00420825
0.0041694
0.00412937
0.00408805
0.00404543
0.0040016
0.00395673
0.003911
0.00386462
0.00381775
0.00377057
0.00372324
0.00367591
0.00362875
0.0035819
0.00353552
0.00348974
0.00344471
0.00340058
0.0033575
0.00331571
0.00327534
0.00323669
0.0032006
0.00316688
0.00313509
0.00310495
0.00307602
0.0030479
0.00302056
0.00299311
0.00296555
0.00293891
0.00289162
1.86104e-05
0.000186274
0.000385124
0.000556221
0.000697791
0.000814691
0.000910627
0.000989777
0.00105569
0.0011114
0.00115954
0.0012024
0.00124195
0.00127989
0.00131761
0.00135623
0.00139662
0.00143938
0.00148491
0.00153341
0.00158496
0.0016395
0.00169691
0.001757
0.00181954
0.00188429
0.00195097
0.00201932
0.00208907
0.00215996
0.00223175
0.00230419
0.00237707
0.00245018
0.00252333
0.00259636
0.00266912
0.00274148
0.00281333
0.00288457
0.00295512
0.00302493
0.00309394
0.0031621
0.0032294
0.0032958
0.00336131
0.00342591
0.00348962
0.00355244
0.00361438
0.00367547
0.00373572
0.00379516
0.00385382
0.0039117
0.00396884
0.00402525
0.00408096
0.00413597
0.00419029
0.00424394
0.0042969
0.00434918
0.00440077
0.00445164
0.00450179
0.00455117
0.00459975
0.0046475
0.00469436
0.00474028
0.00478521
0.00482908
0.00487183
0.00491339
0.0049537
0.00499268
0.00503027
0.0050664
0.00510101
0.00513405
0.00516547
0.00519521
0.00522325
0.00524955
0.00527408
0.00529682
0.00531777
0.00533693
0.00535429
0.00536985
0.00538364
0.00539565
0.00540589
0.0054144
0.00542121
0.00542637
0.00542994
0.00543198
0.00543252
0.00543161
0.00542915
0.00542477
0.00541961
0.00541414
0.00540771
0.00539973
0.00539051
0.00538011
0.00536861
0.00535609
0.00534263
0.00532831
0.00531318
0.00529729
0.00528068
0.0052634
0.00524547
0.00522692
0.00520777
0.00518803
0.00516772
0.00514683
0.00512538
0.00510336
0.00508078
0.00505761
0.00503385
0.00500948
0.00498447
0.0049588
0.00493245
0.00490538
0.00487757
0.004849
0.00481964
0.00478949
0.00475853
0.00472675
0.00469413
0.00466066
0.00462635
0.00459118
0.00455516
0.00451825
0.00448043
0.00444163
0.00440179
0.0043608
0.00431862
0.00427532
0.00423098
0.00418578
0.00413989
0.00409348
0.00404669
0.00399969
0.00395263
0.00390565
0.0038589
0.00381254
0.00376671
0.00372154
0.0036772
0.00363382
0.00359159
0.00355065
0.00351124
0.003474
0.00343983
0.00340813
0.00337842
0.00335027
0.00332329
0.00329731
0.00327184
0.0032466
0.00322143
0.00318131
1.95967e-05
0.000194568
0.000406324
0.000590516
0.00074389
0.000871604
0.000977331
0.00106543
0.00113961
0.00120298
0.00125825
0.00130772
0.00135337
0.00139689
0.00143969
0.00148292
0.00152746
0.00157397
0.00162289
0.00167449
0.00172887
0.00178605
0.00184592
0.00190832
0.00197307
0.00203992
0.00210862
0.00217894
0.00225061
0.00232339
0.00239706
0.00247138
0.00254616
0.00262119
0.00269632
0.00277136
0.0028462
0.00292069
0.00299474
0.00306823
0.00314111
0.00321328
0.00328472
0.00335536
0.00342519
0.00349417
0.00356229
0.00362956
0.00369596
0.00376152
0.00382623
0.00389013
0.00395322
0.00401554
0.0040771
0.00413794
0.00419807
0.00425752
0.00431631
0.00437444
0.00443195
0.00448882
0.00454508
0.0046007
0.00465569
0.00471003
0.0047637
0.00481666
0.00486889
0.00492032
0.00497093
0.00502063
0.00506938
0.00511709
0.00516369
0.0052091
0.00525325
0.00529603
0.00533737
0.00537719
0.00541539
0.00545191
0.00548667
0.0055196
0.00555064
0.00557974
0.00560684
0.00563192
0.00565494
0.00567588
0.00569473
0.00571147
0.00572613
0.00573869
0.00574917
0.00575761
0.00576403
0.00576849
0.00577103
0.00577173
0.00577064
0.00576778
0.0057627
0.00575595
0.00574841
0.00573996
0.00572982
0.00571814
0.00570502
0.00569055
0.00567482
0.00565791
0.00563993
0.00562094
0.00560104
0.00558028
0.00555873
0.00553645
0.00551351
0.00548996
0.00546583
0.00544119
0.00541605
0.00539047
0.00536446
0.00533806
0.00531127
0.00528412
0.00525661
0.00522873
0.00520046
0.00517181
0.00514275
0.00511326
0.00508332
0.0050529
0.005022
0.0049906
0.00495868
0.00492624
0.00489325
0.00485967
0.00482549
0.00479069
0.00475522
0.00471908
0.0046822
0.00464453
0.00460595
0.00456636
0.00452567
0.00448389
0.0044411
0.00439742
0.00435302
0.00430805
0.00426266
0.00421698
0.00417116
0.00412534
0.00407967
0.00403429
0.00398935
0.003945
0.00390139
0.00385866
0.00381698
0.0037765
0.00373742
0.00370022
0.00366613
0.00363493
0.00360597
0.00357878
0.00355302
0.00352846
0.00350477
0.00348173
0.0034588
0.00342494
2.04153e-05
0.000200268
0.000422126
0.00061738
0.000781163
0.00091865
0.00103341
0.00112986
0.0012118
0.0012824
0.0013444
0.00140011
0.00145149
0.00150022
0.0015477
0.00159506
0.00164321
0.00169283
0.00174441
0.00179826
0.00185454
0.0019133
0.00197449
0.002038
0.00210366
0.00217128
0.00224063
0.0023115
0.00238366
0.00245689
0.00253097
0.00260572
0.00268094
0.00275645
0.00283211
0.00290775
0.00298324
0.00305846
0.00313331
0.00320769
0.00328151
0.00335472
0.00342725
0.00349906
0.00357013
0.00364042
0.00370992
0.00377863
0.00384655
0.00391368
0.00398004
0.00404564
0.00411051
0.00417468
0.00423816
0.004301
0.00436322
0.00442483
0.00448587
0.00454635
0.0046063
0.00466571
0.00472461
0.00478298
0.00484083
0.00489813
0.00495488
0.00501103
0.00506655
0.0051214
0.00517551
0.00522882
0.00528125
0.00533273
0.00538316
0.00543245
0.0054805
0.0055272
0.00557244
0.00561613
0.00565816
0.00569841
0.0057368
0.00577323
0.0058076
0.00583985
0.00586989
0.00589767
0.00592313
0.00594624
0.00596696
0.00598527
0.00600116
0.00601464
0.00602571
0.00603439
0.00604072
0.00604475
0.00604653
0.00604612
0.00604362
0.00603878
0.00603165
0.00602285
0.00601278
0.00600116
0.00598766
0.00597241
0.00595549
0.00593701
0.00591707
0.00589577
0.00587323
0.00584954
0.0058248
0.00579909
0.00577252
0.00574517
0.00571712
0.00568846
0.00565927
0.00562961
0.00559955
0.00556917
0.00553851
0.00550764
0.00547659
0.0054454
0.00541411
0.00538271
0.00535122
0.00531964
0.00528797
0.00525621
0.00522432
0.0051923
0.00516013
0.00512783
0.00509537
0.00506273
0.00502987
0.00499676
0.00496335
0.00492957
0.00489539
0.00486077
0.00482566
0.00478995
0.00475352
0.0047162
0.00467785
0.00463843
0.00459799
0.00455664
0.00451455
0.00447184
0.00442865
0.0043851
0.00434132
0.00429745
0.00425362
0.00420998
0.00416669
0.0041239
0.00408176
0.00404042
0.00400006
0.00396082
0.00392291
0.00388673
0.00385353
0.0038233
0.00379539
0.00376934
0.00374486
0.00372171
0.00369968
0.00367856
0.00365762
0.00362916
2.10809e-05
0.000203918
0.000433232
0.00063732
0.000809895
0.000955728
0.00107861
0.00118262
0.00127162
0.00134885
0.00141701
0.00147843
0.00153504
0.00158848
0.00164013
0.00169111
0.00174232
0.00179446
0.00184803
0.00190338
0.00196073
0.00202017
0.0020817
0.00214525
0.0022107
0.0022779
0.00234666
0.0024168
0.00248812
0.00256045
0.0026336
0.0027074
0.00278169
0.00285631
0.00293112
0.00300599
0.00308078
0.00315539
0.0032297
0.00330361
0.00337706
0.00344997
0.00352229
0.00359397
0.003665
0.00373534
0.00380499
0.00387393
0.00394217
0.00400971
0.00407658
0.00414279
0.00420836
0.00427334
0.00433776
0.00440166
0.00446505
0.00452797
0.00459045
0.00465251
0.00471418
0.00477547
0.00483639
0.00489696
0.00495716
0.005017
0.00507644
0.00513547
0.00519403
0.00525209
0.00530957
0.00536641
0.00542253
0.00547782
0.00553219
0.00558553
0.0056377
0.0056886
0.00573808
0.00578602
0.00583227
0.00587672
0.00591922
0.00595966
0.00599791
0.00603386
0.00606742
0.00609849
0.00612699
0.00615287
0.00617606
0.00619653
0.00621425
0.00622922
0.00624143
0.00625089
0.00625765
0.00626173
0.0062632
0.00626213
0.00625857
0.00625231
0.00624371
0.0062331
0.00622061
0.00620617
0.00618964
0.00617109
0.00615063
0.00612837
0.00610442
0.0060789
0.00605195
0.00602366
0.00599418
0.00596361
0.00593208
0.00589969
0.00586656
0.0058328
0.00579852
0.00576383
0.00572883
0.00569361
0.00565826
0.00562287
0.0055875
0.00555224
0.00551713
0.00548221
0.00544749
0.005413
0.00537878
0.00534484
0.00531115
0.00527768
0.00524445
0.00521147
0.00517876
0.00514626
0.00511394
0.00508174
0.00504957
0.00501736
0.00498502
0.00495253
0.00491983
0.00488679
0.00485325
0.00481892
0.00478363
0.00474729
0.0047099
0.00467155
0.00463245
0.0045927
0.0045524
0.00451165
0.00447058
0.00442931
0.00438796
0.0043467
0.00430568
0.00426506
0.004225
0.00418566
0.00414723
0.00410987
0.00407379
0.00403943
0.00400791
0.00397911
0.00395251
0.00392777
0.00390462
0.00388288
0.00386237
0.00384295
0.00382378
0.00379951
2.16024e-05
0.000205775
0.000440095
0.000650831
0.000830503
0.000983217
0.00111285
0.00122331
0.00131843
0.00140142
0.00147498
0.00154137
0.00160252
0.00166003
0.00171522
0.00176919
0.00182283
0.00187683
0.0019317
0.00198784
0.00204547
0.00210474
0.00216569
0.0022283
0.0022925
0.00235816
0.00242516
0.00249334
0.00256256
0.00263267
0.00270355
0.00277507
0.00284708
0.00291945
0.00299207
0.00306481
0.00313757
0.00321021
0.00328265
0.00335477
0.00342649
0.00349776
0.00356854
0.00363878
0.00370845
0.00377755
0.00384607
0.00391399
0.00398134
0.00404811
0.00411433
0.00418001
0.00424517
0.00430991
0.00437427
0.00443826
0.00450193
0.00456531
0.00462842
0.0046913
0.00475399
0.00481652
0.0048789
0.00494114
0.00500325