/*--------------------------------*- C++ -*----------------------------------*\
| =========                 |                                                 |
| \\      /  F ield         | OpenFOAM: The Open Source CFD Toolbox           |
|  \\    /   O peration     | Version:  2406                                  |
|   \\  /    A nd           | Website:  www.openfoam.com                      |
|    \\/     M anipulation  |                                                 |
\*---------------------------------------------------------------------------*/
FoamFile
{
    version     2.0;
    format      ascii;
    arch        "LSB;label=32;scalar=64";
    class       volScalarField;
    location    "100";
    object      p;
}
// * * * * * * * * * * * * * * * * * * * * * * * * * * * * * * * * * * * * * //

dimensions      [0 2 -2 0 0 0 0];

internalField   nonuniform List<scalar> 
12225
(
-2.51226
-4.66986
-5.76304
-6.07778
-6.256
-6.43643
-6.58655
-6.70072
-6.79524
-6.88147
-6.96275
-7.0404
-7.11603
-7.19164
-7.27012
-7.35177
-7.45174
-7.52225
-5.64243
-6.4303
-6.63603
-6.54898
-6.52536
-6.59133
-6.67643
-6.75323
-6.8256
-6.8981
-6.97059
-7.04239
-7.11397
-7.18653
-7.26212
-7.34259
-7.43349
-7.54922
-6.02243
-5.95667
-6.07677
-6.16486
-6.27459
-6.41877
-6.55556
-6.66845
-6.76527
-6.85415
-6.93775
-7.01709
-7.09371
-7.16936
-7.24638
-7.32638
-7.41451
-7.50855
-5.8951
-5.80797
-6.06774
-6.26095
-6.38481
-6.50769
-6.62325
-6.72001
-6.80392
-6.88233
-6.95764
-7.03041
-7.10161
-7.17257
-7.24484
-7.31936
-7.39735
-7.47265
-5.88661
-5.90143
-6.14903
-6.31511
-6.40936
-6.50941
-6.61362
-6.70639
-6.78915
-6.86737
-6.9429
-7.01592
-7.08716
-7.15762
-7.22832
-7.29952
-7.37068
-7.43726
-5.94755
-5.99286
-6.17999
-6.32097
-6.41245
-6.51017
-6.61265
-6.70532
-6.78823
-6.86611
-6.94088
-7.01286
-7.08267
-7.15113
-7.21885
-7.28563
-7.35046
-7.40975
-6.01
-6.0525
-6.19711
-6.32842
-6.42382
-6.51914
-6.617
-6.70684
-6.78795
-6.8641
-6.93711
-7.00736
-7.07526
-7.14136
-7.20593
-7.26851
-7.32793
-7.38126
-6.06532
-6.10274
-6.22082
-6.34262
-6.43744
-6.52804
-6.62029
-6.70685
-6.78604
-6.86048
-6.93181
-7.00036
-7.06636
-7.1301
-7.19161
-7.25036
-7.30524
-7.35397
-6.11684
-6.1509
-6.24903
-6.35878
-6.45008
-6.53608
-6.62323
-6.7065
-6.78361
-6.85621
-6.92569
-6.99236
-7.05627
-7.11752
-7.17602
-7.23124
-7.28225
-7.32732
-6.16563
-6.19644
-6.27835
-6.3758
-6.46251
-6.5443
-6.62665
-6.70632
-6.78098
-6.85147
-6.91888
-6.98343
-7.04507
-7.10376
-7.15937
-7.21138
-7.25908
-7.30118
-6.21147
-6.23878
-6.30769
-6.39384
-6.47524
-6.5528
-6.63047
-6.70633
-6.77823
-6.84638
-6.91152
-6.9738
-7.03306
-7.08919
-7.14203
-7.19114
-7.23601
-7.27569
-6.2506
-6.27479
-6.33416
-6.41102
-6.48708
-6.56061
-6.63414
-6.70645
-6.77562
-6.84145
-6.90436
-6.96444
-7.02149
-7.07531
-7.12574
-7.17244
-7.21506
-7.25287
-6.28646
-6.30798
-6.35951
-6.42806
-6.49874
-6.56824
-6.6378
-6.70659
-6.77296
-6.83638
-6.89699
-6.95484
-7.00968
-7.06129
-7.10947
-7.15398
-7.19459
-7.23081
-6.3236
-6.34249
-6.38672
-6.44703
-6.5117
-6.57662
-6.64182
-6.70666
-6.76977
-6.83037
-6.88833
-6.94358
-6.99594
-7.04513
-7.09097
-7.13324
-7.17185
-7.2065
-6.36048
-6.3768
-6.41448
-6.46702
-6.52534
-6.58521
-6.64578
-6.70634
-6.76578
-6.82318
-6.87817
-6.93054
-6.98016
-7.02679
-7.07024
-7.1103
-7.14696
-7.18009
-6.39471
-6.40868
-6.44075
-6.48634
-6.53841
-6.59304
-6.64888
-6.70506
-6.76055
-6.8145
-6.86629
-6.91565
-6.96239
-7.00641
-7.04749
-7.08546
-7.12028
-7.15199
-6.42286
-6.43487
-6.46244
-6.50224
-6.54869
-6.59837
-6.64973
-6.70169
-6.75328
-6.80374
-6.85241
-6.89879
-6.94271
-6.98416
-7.02303
-7.05911
-7.0923
-7.12265
-6.43989
-6.45047
-6.47488
-6.51049
-6.55266
-6.5984
-6.64608
-6.6945
-6.74275
-6.79015
-6.83607
-6.87987
-6.92133
-6.9605
-6.99744
-7.03192
-7.06377
-7.09299
-6.43807
-6.44797
-6.47093
-6.50464
-6.54482
-6.58851
-6.63416
-6.68057
-6.72683
-6.77228
-6.81635
-6.85843
-6.89824
-6.93585
-6.9714
-7.00474
-7.03568
-7.0642
-6.41195
-6.42234
-6.44641
-6.48173
-6.52357
-6.56848
-6.61487
-6.66177
-6.7084
-6.75397
-6.79798
-6.83984
-6.87942
-6.91671
-6.95189
-6.98476
-7.01531
-7.04354
-6.37635
-6.38761
-6.4141
-6.45319
-6.49874
-6.54651
-6.59513
-6.64406
-6.69231
-6.73909
-6.78381
-6.8263
-6.86637
-6.90413
-6.93948
-6.97248
-7.00301
-7.03145
-6.33304
-6.345
-6.37523
-6.42087
-6.47201
-6.52321
-6.57473
-6.62668
-6.67767
-6.7264
-6.77251
-6.81602
-6.85696
-6.89532
-6.93106
-6.96423
-6.99489
-7.02336
-6.28534
-6.2966
-6.33131
-6.38695
-6.44573
-6.5009
-6.55555
-6.61072
-6.66448
-6.7154
-6.7633
-6.8083
-6.85047
-6.88974
-6.92621
-6.9599
-6.99111
-7.02013
-6.23576
-6.24467
-6.28568
-6.35264
-6.41817
-6.47831
-6.53856
-6.59825
-6.65463
-6.70717
-6.75638
-6.80247
-6.84536
-6.88508
-6.92175
-6.95562
-6.98687
-7.01581
-6.18423
-6.18536
-6.24794
-6.32903
-6.39183
-6.4516
-6.51812
-6.58455
-6.64549
-6.70128
-6.75326
-6.80162
-6.84618
-6.88701
-6.92442
-6.95878
-6.99043
-7.02007
-6.13771
-6.08906
-6.20455
-6.32553
-6.38733
-6.43897
-6.50255
-6.5681
-6.62841
-6.68421
-6.73688
-6.78626
-6.83187
-6.87373
-6.91214
-6.94747
-6.97997
-7.00996
-6.15465
-5.95646
-6.08931
-6.26684
-6.37144
-6.45106
-6.52936
-6.60044
-6.66209
-6.71759
-6.76895
-6.81631
-6.85945
-6.89871
-6.93449
-6.96729
-6.99767
-7.02686
-6.29544
-6.04779
-6.02401
-6.07849
-6.16064
-6.26816
-6.37819
-6.47452
-6.55779
-6.6324
-6.70005
-6.76076
-6.81476
-6.8628
-6.90561
-6.94389
-6.97858
-7.01124
-6.02338
-6.65387
-6.77225
-6.63158
-6.54298
-6.54921
-6.59008
-6.63353
-6.67752
-6.72383
-6.7707
-6.81587
-6.85805
-6.89701
-6.93267
-6.96496
-6.99444
-7.0227
-2.96888
-4.73579
-5.74865
-6.02948
-6.155
-6.29655
-6.42513
-6.52436
-6.60499
-6.67625
-6.74029
-6.79718
-6.84756
-6.89216
-6.9315
-6.96588
-6.99562
-7.01944
-8.12066
-8.1199
-8.11949
-8.12094
-8.12404
-8.1281
-8.13266
-8.13734
-8.14189
-8.14628
-8.15071
-8.15539
-8.16053
-8.1662
-8.17251
-8.17959
-8.18763
-8.19676
-8.20715
-8.21894
-8.23233
-8.24747
-8.26455
-8.28364
-8.30487
-8.32829
-8.35397
-8.38184
-8.41188
-8.44391
-8.4778
-8.51327
-8.55007
-8.58786
-8.62635
-8.66516
-8.70399
-8.74248
-8.78035
-8.8173
-8.85311
-8.88752
-8.92038
-8.9515
-8.98074
-9.008
-9.03317
-9.05617
-9.07694
-9.0954
-9.11151
-9.12524
-9.13652
-9.14535
-9.15164
-9.15541
-9.15657
-9.15513
-9.15098
-9.14419
-9.13463
-9.12237
-9.10726
-9.08941
-9.06866
-9.04515
-9.01872
-8.98953
-8.95741
-8.92255
-8.88479
-8.84432
-8.80099
-8.75502
-8.70626
-8.655
-8.60105
-8.54465
-8.48564
-8.42434
-8.36054
-8.29447
-8.22589
-8.15506
-8.08166
-8.00596
-7.92759
-7.84661
-7.76246
-7.67489
-7.58401
-7.48953
-7.39114
-7.28845
-7.18111
-7.06872
-6.95095
-6.82739
-6.69747
-6.56047
-6.41576
-6.26254
-6.09995
-5.92706
-5.74287
-5.5466
-5.33748
-5.11492
-4.87819
-4.62671
-4.35976
-4.07698
-3.77778
-3.46186
-3.12877
-2.77837
-2.41044
-2.02505
-1.62232
-1.20276
-0.766875
-0.315309
0.15129
0.631989
1.12572
1.63108
2.14663
2.67069
3.20153
3.7373
4.27608
4.81588
5.35472
5.89059
6.42154
6.94564
7.46106
7.96603
8.4589
8.93817
9.40249
9.85065
10.2816
10.6945
11.0887
11.4639
11.8198
12.1565
12.4744
12.7737
13.0545
13.3167
13.5608
13.7871
13.9962
14.189
14.3661
14.5284
14.6767
14.8119
14.9348
15.0464
15.1474
15.2385
15.3207
15.3946
15.461
15.5205
15.5739
15.6218
15.6651
15.7045
15.7409
15.7756
15.8102
15.8472
15.8921
15.9525
16.0552
16.1888
-8.12274
-8.12168
-8.12149
-8.12395
-8.12737
-8.13048
-8.1331
-8.13532
-8.13719
-8.13882
-8.14045
-8.1423
-8.14458
-8.14753
-8.15134
-8.15608
-8.16176
-8.1685
-8.17646
-8.18581
-8.19677
-8.20955
-8.22436
-8.24137
-8.26074
-8.28254
-8.30685
-8.33367
-8.36294
-8.39451
-8.42819
-8.46368
-8.50071
-8.53891
-8.5779
-8.6173
-8.65673
-8.69583
-8.73428
-8.77178
-8.80806
-8.84292
-8.87615
-8.90761
-8.93717
-8.9647
-8.99014
-9.01339
-9.0344
-9.05312
-9.06948
-9.08347
-9.09502
-9.10412
-9.1107
-9.11476
-9.11622
-9.11508
-9.11126
-9.10477
-9.09553
-9.08356
-9.06877
-9.05119
-9.03074
-9.00747
-8.98131
-8.95231
-8.92041
-8.8857
-8.84811
-8.80775
-8.76455
-8.71865
-8.67001
-8.61877
-8.56487
-8.50844
-8.44948
-8.38814
-8.32437
-8.2583
-8.18985
-8.11917
-8.04608
-7.9707
-7.89286
-7.8125
-7.72917
-7.64285
-7.55341
-7.46064
-7.36417
-7.2636
-7.1586
-7.0488
-6.93371
-6.81264
-6.68515
-6.55062
-6.40839
-6.25772
-6.09789
-5.92803
-5.74738
-5.55514
-5.35059
-5.13281
-4.90106
-4.65469
-4.3932
-4.11595
-3.82248
-3.51231
-3.18516
-2.84078
-2.47891
-2.09948
-1.70276
-1.28913
-0.859096
-0.413211
0.0478981
0.523383
1.01217
1.51297
2.02434
2.54468
3.07229
3.60535
4.14198
4.6802
5.21803
5.75347
6.28453
6.80928
7.32583
7.83238
8.32724
8.80889
9.2759
9.72702
10.1612
10.5775
10.9754
11.3542
11.7139
12.0541
12.375
12.677
12.9604
13.2256
13.4728
13.7023
13.9149
14.1111
14.2917
14.4575
14.6093
14.748
14.8742
14.989
15.0931
15.1873
15.2724
15.349
15.4181
15.4801
15.536
15.5863
15.6318
15.6733
15.7118
15.7486
15.7852
15.8241
15.8702
15.928
16.021
16.1327
-8.11884
-8.11871
-8.11924
-8.12182
-8.12475
-8.12676
-8.12767
-8.12775
-8.12722
-8.12633
-8.12536
-8.12464
-8.12446
-8.12504
-8.1265
-8.12892
-8.13243
-8.1372
-8.14342
-8.15134
-8.16119
-8.17318
-8.1875
-8.20429
-8.22369
-8.24576
-8.27048
-8.29775
-8.32743
-8.35928
-8.39305
-8.42839
-8.46501
-8.50254
-8.54066
-8.57903
-8.61734
-8.65528
-8.69257
-8.72897
-8.76424
-8.79819
-8.83063
-8.86142
-8.89042
-8.91751
-8.94261
-8.96562
-8.98646
-9.00509
-9.02143
-9.03546
-9.0471
-9.05632
-9.06307
-9.06731
-9.069
-9.0681
-9.06456
-9.05835
-9.04942
-9.03774
-9.02327
-9.00599
-8.98587
-8.96289
-8.93703
-8.90831
-8.8767
-8.84222
-8.80489
-8.76475
-8.7218
-8.6761
-8.62769
-8.57665
-8.52297
-8.46675
-8.40803
-8.3469
-8.28338
-8.21755
-8.14944
-8.07911
-8.00651
-7.93167
-7.85455
-7.77499
-7.69277
-7.60774
-7.51994
-7.42911
-7.33483
-7.23683
-7.13467
-7.02801
-6.91624
-6.79883
-6.67512
-6.54455
-6.40643
-6.26008
-6.10478
-5.93971
-5.76421
-5.57741
-5.37855
-5.16669
-4.94115
-4.70117
-4.44627
-4.17571
-3.88912
-3.58595
-3.26592
-2.92861
-2.57387
-2.20159
-1.81203
-1.40551
-0.982489
-0.543435
-0.0889868
0.380077
0.86269
1.35764
1.86352
2.3788
2.90181
3.43077
3.96384
4.49906
5.03448
5.56808
6.09789
6.62194
7.13834
7.64527
8.14104
8.62409
9.09301
9.54658
9.98374
10.4036
10.8056
11.1892
11.554
11.8999
12.227
12.5354
12.8253
13.0969
13.3503
13.5861
13.8048
14.0069
14.1933
14.3647
14.5218
14.6655
14.7967
14.9161
15.0246
15.1229
15.2119
15.2923
15.3648
15.4301
15.4891
15.5423
15.5906
15.6347
15.6758
15.7148
15.7536
15.7943
15.841
15.896
15.977
16.0559
-8.10741
-8.10982
-8.11268
-8.1162
-8.11924
-8.12105
-8.12162
-8.12125
-8.12021
-8.11873
-8.11708
-8.11553
-8.11437
-8.11385
-8.1142
-8.11563
-8.11836
-8.12261
-8.12859
-8.13647
-8.14647
-8.15871
-8.17334
-8.19044
-8.21007
-8.2322
-8.25683
-8.28383
-8.31307
-8.34431
-8.37733
-8.41183
-8.44753
-8.48409
-8.52122
-8.55859
-8.59591
-8.63286
-8.6692
-8.70467
-8.73907
-8.77218
-8.80385
-8.83393
-8.86227
-8.88878
-8.91335
-8.93589
-8.95634
-8.97462
-8.99067
-9.00444
-9.01588
-9.02494
-9.03157
-9.03572
-9.03735
-9.03642
-9.03286
-9.02666
-9.01774
-9.0061
-8.99167
-8.97444
-8.95437
-8.93144
-8.90564
-8.87696
-8.8454
-8.81097
-8.77368
-8.73358
-8.69068
-8.64504
-8.59672
-8.54576
-8.49222
-8.43617
-8.37766
-8.31677
-8.25356
-8.18808
-8.12039
-8.05053
-7.9785
-7.9043
-7.82792
-7.74925
-7.66803
-7.58432
-7.49796
-7.40874
-7.31636
-7.22046
-7.12072
-7.01667
-6.90781
-6.79352
-6.67318
-6.54615
-6.41177
-6.26937
-6.11819
-5.95751
-5.78656
-5.60454
-5.41053
-5.20373
-4.98335
-4.74875
-4.49931
-4.23435
-3.95336
-3.65586
-3.34144
-3.00973
-2.66053
-2.29381
-1.90974
-1.50863
-1.09089
-0.656949
-0.207422
0.256902
0.734987
1.22565
1.72753
2.23911
2.75877
3.28475
3.81522
4.34826
4.88189
5.41411
5.94293
6.46639
6.98256
7.48964
7.98592
8.46989
8.94014
9.3955
9.83494
10.2576
10.6629
11.0502
11.4193
11.7697
12.1016
12.415
12.7099
12.9865
13.245
13.4858
13.7094
13.9164
14.1074
14.2834
14.445
14.593
14.7282
14.8516
14.9638
15.0656
15.1579
15.2415
15.3169
15.385
15.4466
15.5022
15.5528
15.599
15.642
15.6827
15.7228
15.7639
15.8095
15.8599
15.9269
15.9766
-8.08862
-8.09381
-8.10048
-8.10644
-8.1108
-8.11348
-8.11466
-8.1147
-8.11393
-8.11261
-8.11105
-8.10952
-8.10834
-8.10779
-8.10816
-8.1097
-8.11266
-8.11724
-8.12366
-8.13208
-8.14266
-8.15553
-8.1708
-8.18853
-8.20873
-8.23138
-8.25638
-8.28361
-8.31288
-8.34397
-8.37665
-8.41062
-8.44564
-8.48137
-8.51756
-8.55389
-8.59011
-8.62595
-8.66116
-8.69553
-8.72886
-8.76095
-8.79167
-8.82084
-8.84836
-8.87411
-8.89799
-8.91991
-8.93979
-8.95757
-8.97316
-8.98653
-8.9976
-9.00633
-9.01266
-9.01654
-9.0179
-9.01672
-9.01293
-9.00649
-8.99735
-8.98547
-8.97081
-8.95334
-8.93301
-8.90983
-8.88376
-8.85481
-8.82296
-8.78824
-8.75067
-8.71029
-8.66713
-8.62125
-8.57271
-8.52158
-8.46793
-8.41184
-8.35337
-8.29261
-8.22963
-8.16449
-8.09726
-8.02798
-7.95666
-7.88332
-7.80793
-7.73039
-7.65061
-7.56833
-7.48378
-7.39646
-7.30623
-7.21266
-7.11551
-7.01422
-6.90839
-6.79731
-6.68043
-6.55705
-6.4265
-6.28813
-6.14109
-5.98476
-5.81818
-5.64064
-5.45108
-5.24887
-5.03312
-4.80331
-4.55858
-4.29841
-4.02203
-3.72914
-3.41914
-3.09181
-2.74683
-2.38426
-2.00416
-1.60688
-1.1927
-0.762107
-0.315654
0.145794
0.621272
1.10957
1.60936
2.11915
2.63731
3.16211
3.69168
4.22413
4.75746
5.28966
5.81872
6.34266
6.85955
7.36759
7.8651
8.35054
8.82257
9.27999
9.72178
10.147
10.5551
10.9455
11.3177
11.6715
12.0068
12.3237
12.6221
12.9022
13.1643
13.4086
13.6357
13.8462
14.0407
14.22
14.3848
14.536
14.6743
14.8006
14.9157
15.0202
15.1151
15.201
15.2786
15.3488
15.4123
15.4697
15.5218
15.5695
15.6136
15.6551
15.6954
15.7359
15.7789
15.8233
15.8774
15.9035
-8.06533
-8.07321
-8.08457
-8.09365
-8.09992
-8.10406
-8.10647
-8.10751
-8.1076
-8.10704
-8.10616
-8.10527
-8.10471
-8.10478
-8.1058
-8.10805
-8.11178
-8.11721
-8.12455
-8.13394
-8.14554
-8.15942
-8.17566
-8.19428
-8.21526
-8.23854
-8.264
-8.2915
-8.32083
-8.35178
-8.38411
-8.41756
-8.45188
-8.48679
-8.52205
-8.55737
-8.59254
-8.62729
-8.66143
-8.69473
-8.72702
-8.75812
-8.78788
-8.81617
-8.84286
-8.86784
-8.891
-8.91227
-8.93155
-8.94877
-8.96386
-8.97675
-8.98739
-8.9957
-9.00163
-9.00512
-9.00611
-9.00456
-9.00038
-8.99355
-8.98401
-8.97171
-8.95661
-8.93868
-8.91787
-8.89418
-8.86759
-8.83809
-8.80569
-8.77041
-8.73226
-8.69131
-8.6476
-8.60119
-8.55216
-8.5006
-8.44658
-8.39019
-8.33155
-8.27072
-8.20781
-8.1429
-8.07606
-8.00734
-7.93677
-7.86436
-7.79013
-7.714
-7.63568
-7.55542
-7.47283
-7.38785
-7.30009
-7.2093
-7.11505
-7.01695
-6.91444
-6.80695
-6.69383
-6.57441
-6.44801
-6.31388
-6.17129
-6.01939
-5.85737
-5.6843
-5.49932
-5.30166
-5.09059
-4.86534
-4.62516
-4.36935
-4.0973
-3.80851
-3.50251
-3.17895
-2.83763
-2.4785
-2.10165
-1.70734
-1.29584
-0.867606
-0.423241
0.0364159
0.510382
0.997466
1.49635
2.00553
2.52338
3.04816
3.57801
4.11098
4.64508
5.17829
5.70856
6.2339
6.75242
7.26228
7.76183
8.24954
8.72403
9.18405
9.62856
10.0567
10.4677
10.861
11.2362
11.593
11.9313
12.2511
12.5524
12.8354
13.1002
13.3473
13.5772
13.7904
13.9875
14.1694
14.3368
14.4905
14.6312
14.7598
14.8771
14.9837
15.0806
15.1684
15.2479
15.3197
15.3846
15.4433
15.4965
15.545
15.5897
15.6315
15.6713
15.7101
15.7496
15.7877
15.8304
15.8376
-8.04125
-8.0515
-8.06754
-8.07976
-8.0881
-8.094
-8.09796
-8.10038
-8.1017
-8.10231
-8.10255
-8.10277
-8.10331
-8.10448
-8.10662
-8.11
-8.11488
-8.12148
-8.13
-8.14058
-8.15333
-8.16831
-8.18557
-8.20507
-8.22679
-8.25063
-8.27646
-8.30413
-8.33345
-8.36421
-8.39618
-8.42914
-8.46283
-8.49702
-8.53146
-8.5659
-8.60014
-8.63394
-8.66711
-8.69945
-8.7308
-8.76099
-8.78988
-8.81734
-8.84324
-8.86748
-8.88996
-8.91058
-8.92926
-8.94592
-8.96048
-8.97288
-8.98303
-8.99088
-8.99635
-8.99938
-8.99991
-8.99787
-8.9932
-8.98586
-8.97576
-8.96289
-8.94717
-8.92859
-8.9071
-8.88269
-8.85535
-8.82507
-8.79187
-8.75577
-8.71681
-8.67503
-8.63052
-8.58334
-8.53358
-8.48134
-8.42673
-8.36986
-8.31084
-8.24978
-8.18679
-8.12198
-8.05543
-7.98722
-7.91737
-7.84594
-7.77293
-7.69822
-7.62177
-7.54341
-7.46316
-7.38076
-7.29578
-7.20804
-7.11704
-7.02243
-6.92359
-6.81999
-6.71095
-6.59577
-6.47377
-6.34412
-6.20615
-6.05887
-5.90152
-5.73303
-5.55275
-5.3597
-5.15328
-4.93249
-4.69672
-4.44509
-4.17716
-3.8922
-3.5899
-3.26977
-2.93172
-2.57559
-2.20153
-1.80962
-1.40024
-0.973743
-0.530837
-0.0722876
0.400857
0.887458
1.38616
1.89547
2.41375
2.93922
3.47003
4.00419
4.53971
5.07453
5.60662
6.13397
6.65469
7.16697
7.6691
8.15957
8.6369
9.09989
9.54741
9.97859
10.3926
10.789
11.1672
11.5269
11.8681
12.1906
12.4946
12.7801
13.0474
13.2969
13.5291
13.7446
13.944
14.128
14.2975
14.4531
14.5958
14.7263
14.8453
14.9537
15.0522
15.1416
15.2225
15.2957
15.3617
15.4214
15.4754
15.5245
15.5694
15.6109
15.6497
15.6864
15.722
15.7536
15.7864
15.7782
-8.01958
-8.03164
-8.05167
-8.06662
-8.07687
-8.08452
-8.09011
-8.09402
-8.09673
-8.09869
-8.10027
-8.10181
-8.10368
-8.10619
-8.10966
-8.11435
-8.12054
-8.12841
-8.13816
-8.14991
-8.16376
-8.17975
-8.19791
-8.21819
-8.24054
-8.26484
-8.29098
-8.31879
-8.34809
-8.37867
-8.41033
-8.44284
-8.47598
-8.50952
-8.54325
-8.57692
-8.61035
-8.64332
-8.67565
-8.70716
-8.73769
-8.76709
-8.79522
-8.82195
-8.84717
-8.87076
-8.89263
-8.91267
-8.93081
-8.94695
-8.96101
-8.97293
-8.98261
-8.98998
-8.99497
-8.99751
-8.99752
-8.99494
-8.98969
-8.98172
-8.97096
-8.95737
-8.94089
-8.92149
-8.89913
-8.87381
-8.8455
-8.81423
-8.77999
-8.74284
-8.70281
-8.65999
-8.61444
-8.56625
-8.51555
-8.46244
-8.40706
-8.34953
-8.28998
-8.22857
-8.1654
-8.10061
-8.03431
-7.96658
-7.89749
-7.82707
-7.75535
-7.68225
-7.60762
-7.53155
-7.45381
-7.37414
-7.29225
-7.20778
-7.12037
-7.02951
-6.93467
-6.83524
-6.73056
-6.61992
-6.50253
-6.37766
-6.24442
-6.10197
-5.94932
-5.78564
-5.61007
-5.42178
-5.21989
-5.00358
-4.77203
-4.52454
-4.26044
-3.97917
-3.68024
-3.3633
-3.02816
-2.67469
-2.30294
-1.91301
-1.50521
-1.07997
-0.637958
-0.179988
0.292914
0.77959
1.27868
1.78867
2.30791
2.8346
3.36686
3.90271
4.4401
4.977
5.51135
6.04116
6.5645
7.07957
7.58462
8.07809
8.55851
9.02462
9.47528
9.90958
10.3267
10.7261
11.1073
11.4699
11.8138
12.1389
12.4453
12.7332
13.0028
13.2545
13.4887
13.7062
13.9075
14.0934
14.2646
14.4219
14.5662
14.6982
14.8187
14.9286
15.0284
15.1191
15.2012
15.2755
15.3425
15.403
15.4576
15.507
15.5518
15.5926
15.6301
15.6644
15.6959
15.7213
15.7455
15.7247
-8.00248
-8.01579
-8.0387
-8.0557
-8.06748
-8.07663
-8.0837
-8.089
-8.09307
-8.09636
-8.0993
-8.10221
-8.10545
-8.10932
-8.11413
-8.12014
-8.1276
-8.13669
-8.14759
-8.1604
-8.17522
-8.19207
-8.21097
-8.23186
-8.25468
-8.27933
-8.30567
-8.33353
-8.36276
-8.39315
-8.42451
-8.45662
-8.48928
-8.52226
-8.55537
-8.5884
-8.62115
-8.65342
-8.68506
-8.71589
-8.74576
-8.77451
-8.80203
-8.82817
-8.85283
-8.8759
-8.89727
-8.91684
-8.93453
-8.95023
-8.96386
-8.97535
-8.98459
-8.99151
-8.99603
-8.99806
-8.99752
-8.99435
-8.98845
-8.97978
-8.96825
-8.95382
-8.93643
-8.91605
-8.89265
-8.86621
-8.83673
-8.80424
-8.76874
-8.7303
-8.68898
-8.64485
-8.59803
-8.54862
-8.49675
-8.44257
-8.38623
-8.32788
-8.26768
-8.20579
-8.14237
-8.07755
-8.01148
-7.94425
-7.87595
-7.80663
-7.73631
-7.66492
-7.59246
-7.51867
-7.4437
-7.36702
-7.28845
-7.20754
-7.12398
-7.03717
-6.94663
-6.8517
-6.75167
-6.64585
-6.53334
-6.41346
-6.28516
-6.14768
-5.99993
-5.84123
-5.67049
-5.487
-5.28966
-5.0778
-4.85041
-4.60695
-4.34655
-4.06878
-3.77301
-3.45903
-3.12649
-2.77535
-2.4055
-2.01716
-1.6105
-1.18609
-0.744525
-0.286698
0.186416
0.673595
1.17349
1.68458
2.20517
2.73347
3.26755
3.80546
4.34514
4.88453
5.42156
5.95421
6.48055
6.9987
7.50694
8.00362
8.4873
8.95663
9.41051
9.84794
10.2682
10.6705
11.0546
11.4199
11.7665
12.0941
12.4029
12.693
12.9646
13.2182
13.4544
13.6736
13.8766
14.0641
14.2368
14.3956
14.5412
14.6745
14.7963
14.9073
15.0083
15.1
15.1831
15.2582
15.326
15.3872
15.4422
15.4917
15.5363
15.5763
15.6122
15.6439
15.6714
15.6909
15.7076
15.6767
-7.99124
-8.00523
-8.02963
-8.04783
-8.06064
-8.07088
-8.07911
-8.08558
-8.09082
-8.09532
-8.0995
-8.10366
-8.10818
-8.11331
-8.11936
-8.12656
-8.13516
-8.14531
-8.15719
-8.17089
-8.18649
-8.20401
-8.22346
-8.24479
-8.26793
-8.29276
-8.31918
-8.34701
-8.3761
-8.40627
-8.43732
-8.46905
-8.50128
-8.53379
-8.56639
-8.59888
-8.63109
-8.66283
-8.69393
-8.72423
-8.75359
-8.78187
-8.80892
-8.83464
-8.85889
-8.88158
-8.90258
-8.92181
-8.93915
-8.95451
-8.9678
-8.97892
-8.98778
-8.99428
-8.99834
-8.99986
-8.99876
-8.99495
-8.98834
-8.97887
-8.96646
-8.95107
-8.93263
-8.91111
-8.88648
-8.85873
-8.82787
-8.79393
-8.75694
-8.71697
-8.6741
-8.62843
-8.5801
-8.52922
-8.47597
-8.42052
-8.36303
-8.30369
-8.2427
-8.18024
-8.11648
-8.0516
-7.98575
-7.91905
-7.85161
-7.78347
-7.7147
-7.64524
-7.5749
-7.50387
-7.43173
-7.35835
-7.28331
-7.20629
-7.12681
-7.04438
-6.95842
-6.86826
-6.7732
-6.67241
-6.5651
-6.45034
-6.32725
-6.19486
-6.05231
-5.89863
-5.73291
-5.55416
-5.36148
-5.15397
-4.93079
-4.69118
-4.43443
-4.15995
-3.86724
-3.55595
-3.22582
-2.87669
-2.5085
-2.12139
-1.71564
-1.29176
-0.850399
-0.39243
0.0811336
0.569063
1.07
1.58241
2.10462
2.63481
3.17107
3.7114
4.25375
4.79601
5.33609
5.87193
6.40155
6.92306
7.43469
7.93477
8.42181
8.89447
9.35159
9.79219
10.2155
10.6208
11.0076
11.3756
11.7247
12.0547
12.3657
12.6579
12.9314
13.1869
13.4247
13.6455
13.85
14.0389
14.213
14.373
14.5199
14.6543
14.7771
14.8891
14.9911
15.0836
15.1675
15.2434
15.3118
15.3734
15.4287
15.4782
15.5224
15.5615
15.5957
15.6248
15.6485
15.6626
15.6728
15.6334
-7.98626
-8.0003
-8.02478
-8.04331
-8.0566
-8.06746
-8.07643
-8.08374
-8.0899
-8.09536
-8.10055
-8.10578
-8.11136
-8.11757
-8.12467
-8.13287
-8.14241
-8.15342
-8.16608
-8.18044
-8.19662
-8.2146
-8.23441
-8.25598
-8.27926
-8.30415
-8.33052
-8.35823
-8.38712
-8.41702
-8.44776
-8.47914
-8.51098
-8.54309
-8.57527
-8.60735
-8.63915
-8.67048
-8.7012
-8.73114
-8.76016
-8.78812
-8.81488
-8.84032
-8.86433
-8.88678
-8.90757
-8.92657
-8.94369
-8.95882
-8.97185
-8.98267
-8.9912
-8.99732
-9.00093
-9.00194
-9.00023
-8.99573
-8.98833
-8.97798
-8.96458
-8.94808
-8.92842
-8.90558
-8.87952
-8.85025
-8.81778
-8.78216
-8.74342
-8.70167
-8.657
-8.60955
-8.55945
-8.50688
-8.45203
-8.39509
-8.33628
-8.2758
-8.21389
-8.15076
-8.0866
-8.02163
-7.95601
-7.88989
-7.82337
-7.75655
-7.68945
-7.62201
-7.55422
-7.48589
-7.41697
-7.34711
-7.27588
-7.20298
-7.12787
-7.05008
-6.96896
-6.88383
-6.79397
-6.69844
-6.5965
-6.48705
-6.36935
-6.24225
-6.10501
-5.95644
-5.79576
-5.62177
-5.43374
-5.23054
-5.01152
-4.7757
-4.52252
-4.25123
-3.96148
-3.65277
-3.32492
-2.97764
-2.61099
-2.22501
-1.82011
-1.39671
-0.955508
-0.497323
-0.0232305
0.465583
0.967735
1.48171
2.00582
2.53822
3.07699
3.62008
4.16542
4.71087
5.25428
5.79358
6.32672
6.8518
7.36696
7.87057
8.36107
8.83712
9.29751
9.74127
10.1676
10.5757
10.9653
11.3359
11.6874
12.0197
12.3328
12.6269
12.9022
13.1593
13.3987
13.621
13.8268
14.0169
14.1922
14.3534
14.5013
14.6367
14.7605
14.8734
14.9761
15.0694
15.154
15.2304
15.2994
15.3614
15.4168
15.4662
15.5098
15.5478
15.5804
15.6068
15.6269
15.6361
15.6407
15.5945
-7.98712
-8.00066
-8.02398
-8.04203
-8.05527
-8.06625
-8.07551
-8.08328
-8.09001
-8.09615
-8.10208
-8.10809
-8.1145
-8.12152
-8.12943
-8.1384
-8.14864
-8.16028
-8.17348
-8.1883
-8.20483
-8.22307
-8.24304
-8.26469
-8.28796
-8.31275
-8.33896
-8.36645
-8.39508
-8.42469
-8.45511
-8.48616
-8.51766
-8.54942
-8.58128
-8.61304
-8.64454
-8.6756
-8.70609
-8.73582
-8.76466
-8.79246
-8.81911
-8.84445
-8.86836
-8.89073
-8.91143
-8.93034
-8.94735
-8.96233
-8.97517
-8.98577
-8.99399
-8.99975
-9.00291
-9.00338
-9.00102
-8.99575
-8.98747
-8.9761
-8.96156
-8.9438
-8.92274
-8.89837
-8.87067
-8.83964
-8.80532
-8.76775
-8.72701
-8.68322
-8.63648
-8.58698
-8.53487
-8.48037
-8.42369
-8.36507
-8.30476
-8.243
-8.18005
-8.11617
-8.05157
-7.9865
-7.92113
-7.85565
-7.79016
-7.72476
-7.6595
-7.59432
-7.52912
-7.46391
-7.3984
-7.33225
-7.26511
-7.19655
-7.12609
-7.05316
-6.97711
-6.89724
-6.81271
-6.72268
-6.62618
-6.5223
-6.41003
-6.28843
-6.15646
-6.01314
-5.85741
-5.68829
-5.5048
-5.30603
-5.09111
-4.8592
-4.60956
-4.34159
-4.0548
-3.74877
-3.42321
-3.07788
-2.71277
-2.32801
-1.92393
-1.50098
-1.05983
-0.601325
-0.12652
0.363385
0.866999
1.3828
1.90907
2.44396
2.98548
3.5316
4.08017
4.62902
5.17597
5.71888
6.25569
6.78442
7.30322
7.81039
8.30438
8.78381
9.24746
9.69433
10.1236
10.5346
10.9268
11.2999
11.6537
11.9881
12.3032
12.599
12.8761
13.1347
13.3755
13.5991
13.8062
13.9975
14.1738
14.336
14.4848
14.6212
14.7458
14.8595
14.9629
15.0569
15.1421
15.219
15.2884
15.3507
15.4062
15.4553
15.4983
15.5352
15.566
15.59
15.6066
15.6115
15.6111
15.5593
-7.99294
-8.00547
-8.02675
-8.04366
-8.05633
-8.06693
-8.07603
-8.08386
-8.09081
-8.09728
-8.10363
-8.11014
-8.11707
-8.12464
-8.13308
-8.14255
-8.15324
-8.16528
-8.17879
-8.19384
-8.21052
-8.22882
-8.24877
-8.27032
-8.29344
-8.31802
-8.34397
-8.37117
-8.39949
-8.42878
-8.45888
-8.48961
-8.5208
-8.55228
-8.58387
-8.6154
-8.64671
-8.67762
-8.70799
-8.73765
-8.76646
-8.79427
-8.82094
-8.84632
-8.87029
-8.89271
-8.91344
-8.93237
-8.94935
-8.96427
-8.97699
-8.98739
-8.99533
-9.00071
-9.00339
-9.00324
-9.00015
-8.994
-8.9847
-8.97217
-8.95631
-8.93707
-8.9144
-8.88826
-8.85865
-8.8256
-8.78914
-8.74934
-8.7063
-8.66016
-8.61106
-8.55921
-8.5048
-8.44809
-8.38933
-8.32881
-8.26679
-8.20358
-8.13946
-8.07472
-8.00963
-7.94443
-7.87934
-7.81454
-7.75017
-7.68633
-7.62306
-7.56031
-7.49804
-7.43602
-7.37421
-7.31206
-7.24927
-7.18534
-7.11979
-7.052
-6.98128
-6.90691
-6.82795
-6.74363
-6.65283
-6.55473
-6.44811
-6.33217
-6.20565
-6.0677
-5.91708
-5.75298
-5.57421
-5.38001
-5.16929
-4.94137
-4.69536
-4.43081
-4.14703
-3.84373
-3.52043
-3.17704
-2.81341
-2.42979
-2.02641
-1.6038
-1.16255
-0.703575
-0.227875
0.263301
0.768574
1.2864
1.81503
2.35258
2.89703
3.4463
3.99824
4.55062
5.1012
5.6478
6.18832
6.72074
7.24318
7.7539
8.25135
8.7341
9.20095
9.65086
10.083
10.4967
10.8915
11.2669
11.6229
11.9593
12.2762
12.5738
12.8524
13.1124
13.3545
13.5793
13.7875
13.9798
14.1572
14.3203
14.47
14.6071
14.7325
14.8469
14.9511
15.0457
15.1314
15.2089
15.2786
15.341
15.3965
15.4454
15.4877
15.5235
15.5526
15.5742
15.5877
15.5886
15.5839
15.5275
-8.00262
-8.01377
-8.03247
-8.04771
-8.05932
-8.06911
-8.07764
-8.08512
-8.09191
-8.09836
-8.10481
-8.11147
-8.11862
-8.12643
-8.13512
-8.14482
-8.1557
-8.16788
-8.18147
-8.19653
-8.21314
-8.23131
-8.25107
-8.27238
-8.29521
-8.31947
-8.34508
-8.37193
-8.3999
-8.42883
-8.45857
-8.48897
-8.51986
-8.55108
-8.58247
-8.61384
-8.64505
-8.67592
-8.7063
-8.73601
-8.76492
-8.79285
-8.81967
-8.84521
-8.86934
-8.8919
-8.91275
-8.93176
-8.94877
-8.96364
-8.97623
-8.98641
-8.99401
-8.99891
-9.00097
-9.00007
-8.99608
-8.98888
-8.97836
-8.96443
-8.94701
-8.92603
-8.90142
-8.8732
-8.84135
-8.80591
-8.76694
-8.72453
-8.67881
-8.62994
-8.5781
-8.52354
-8.4665
-8.40727
-8.34615
-8.28347
-8.21954
-8.15472
-8.08931
-8.02365
-7.95803
-7.89273
-7.82799
-7.76401
-7.70094
-7.63886
-7.57786
-7.51784
-7.45868
-7.40042
-7.34256
-7.28484
-7.22675
-7.16786
-7.10761
-7.04533
-6.98033
-6.91176
-6.83879
-6.76043
-6.67573
-6.5836
-6.48299
-6.37281
-6.252
-6.11948
-5.97422
-5.81515
-5.64127
-5.4516
-5.2452
-5.02123
-4.77895
-4.51774
-4.23703
-3.93635
-3.61531
-3.27373
-2.91154
-2.52894
-2.12618
-1.70375
-1.26231
-0.802716
-0.326006
0.166568
0.673614
1.19356
1.72464
2.26493
2.81236
3.36482
3.92014
4.47603
5.0302
5.58042
6.12456
6.66058
7.18655
7.70072
8.2015
8.68746
9.15739
9.61023
10.0451
10.4614
10.8586
11.2363
11.5944
11.9326
12.2512
12.5504
12.8304
13.0917
13.3351
13.561
13.7702
13.9635
14.1417
14.3057
14.4562
14.5941
14.7203
14.8354
14.9402
15.0354
15.1217
15.1996
15.2697
15.3323
15.3877
15.4362
15.4779
15.5126
15.54
15.5594
15.57
15.5674
15.5589
15.4988
-8.01502
-8.02458
-8.04037
-8.05356
-8.06373
-8.07232
-8.07988
-8.08664
-8.09291
-8.09897
-8.10514
-8.11163
-8.11866
-8.12639
-8.13502
-8.14465
-8.15545
-8.1675
-8.18092
-8.19576
-8.21209
-8.22994
-8.24934
-8.27024
-8.29263
-8.31642
-8.34157
-8.36796
-8.39548
-8.42399
-8.45335
-8.48341
-8.51403
-8.54502
-8.57624
-8.60752
-8.63869
-8.66957
-8.70003
-8.72986
-8.75893
-8.78705
-8.81408
-8.83983
-8.86415
-8.88688
-8.90786
-8.92693
-8.94393
-8.9587
-8.97109
-8.98093
-8.98807
-8.99236
-8.99364
-8.9918
-8.98668
-8.97816
-8.96612
-8.95047
-8.93112
-8.90802
-8.88112
-8.85043
-8.81595
-8.77773
-8.73584
-8.69042
-8.64161
-8.58962
-8.53468
-8.47707
-8.41709
-8.35508
-8.29139
-8.22637
-8.16042
-8.0939
-8.0272
-7.96065
-7.89462
-7.82936
-7.76518
-7.70227
-7.64078
-7.58081
-7.52242
-7.46551
-7.41006
-7.35577
-7.30242
-7.24953
-7.1966
-7.14315
-7.08859
-7.03219
-6.97324
-6.9108
-6.84409
-6.77198
-6.69358
-6.6076
-6.5131
-6.40877
-6.29373
-6.16671
-6.02683
-5.8728
-5.7038
-5.51863
-5.31652
-5.09646
-4.85787
-4.59994
-4.32221
-4.02404
-3.70518
-3.36529
-3.00449
-2.6228
-2.2206
-1.79828
-1.35657
-0.896295
-0.418548
0.0754483
0.584255
1.10628
1.63973
2.18262
2.73289
3.28838
3.84686
4.40605
4.96357
5.51721
6.06475
6.60414
7.13342
7.65082
8.15469
8.64364
9.11642
9.57199
10.0095
10.4282
10.8277
11.2074
11.5673
11.9073
12.2275
12.528
12.8094
13.072
13.3164
13.5433
13.7535
13.9477
14.1268
14.2916
14.4429
14.5816
14.7085
14.8244
14.9299
15.0257
15.1126
15.191
15.2613
15.3241
15.3795
15.4276
15.4686
15.5023
15.5282
15.5455
15.5534
15.5478
15.5359
15.473
-8.02965
-8.03751
-8.05031
-8.06119
-8.06957
-8.07658
-8.08277
-8.0884
-8.09372
-8.09901
-8.10453
-8.11046
-8.117
-8.12429
-8.13249
-8.1417
-8.15206
-8.16363
-8.17653
-8.19082
-8.20656
-8.22378
-8.24251
-8.26271
-8.2844
-8.30749
-8.33196
-8.3577
-8.38462
-8.41259
-8.44148
-8.47114
-8.50143
-8.53216
-8.56321
-8.59437
-8.62551
-8.65643
-8.68697
-8.71694
-8.74617
-8.77447
-8.80168
-8.8276
-8.85207
-8.87489
-8.89591
-8.91494
-8.93181
-8.94633
-8.95835
-8.96768
-8.97415
-8.97761
-8.97789
-8.97483
-8.96829
-8.95814
-8.94425
-8.92654
-8.90491
-8.87933
-8.84976
-8.81619
-8.77865
-8.73722
-8.69201
-8.64318
-8.59091
-8.53547
-8.47711
-8.41617
-8.35301
-8.28803
-8.2216
-8.15417
-8.08617
-8.018
-7.9501
-7.88282
-7.81658
-7.75165
-7.68835
-7.62686
-7.56735
-7.50999
-7.45468
-7.40143
-7.35003
-7.30034
-7.25193
-7.2043
-7.15698
-7.1094
-7.06091
-7.01077
-6.95815
-6.9022
-6.84192
-6.77635
-6.70431
-6.62468
-6.53622
-6.43788
-6.32853
-6.20712
-6.0725
-5.9236
-5.75935
-5.57873
-5.38078
-5.16468
-4.92966
-4.67502
-4.40014
-4.10448
-3.78766
-3.44948
-3.08995