/*--------------------------------*- C++ -*----------------------------------*\
| =========                 |                                                 |
| \\      /  F ield         | OpenFOAM: The Open Source CFD Toolbox           |
|  \\    /   O peration     | Version:  2406                                  |
|   \\  /    A nd           | Website:  www.openfoam.com                      |
|    \\/     M anipulation  |                                                 |
\*---------------------------------------------------------------------------*/
FoamFile
{
    version     2.0;
    format      ascii;
    arch        "LSB;label=32;scalar=64";
    class       surfaceScalarField;
    location    "100";
    object      phi;
}
// * * * * * * * * * * * * * * * * * * * * * * * * * * * * * * * * * * * * * //

dimensions      [0 3 -1 0 0 0 0];

oriented        oriented;

internalField   nonuniform List<scalar> 
24170
(
3.11513e-06
7.32763e-08
3.01302e-06
1.02115e-07
2.9176e-06
9.5417e-08
2.82649e-06
9.11044e-08
2.74058e-06
8.59127e-08
2.66317e-06
7.7404e-08
2.59542e-06
6.77525e-08
2.53667e-06
5.87467e-08
2.48582e-06
5.08504e-08
2.44179e-06
4.40317e-08
2.40362e-06
3.81655e-08
2.37051e-06
3.31064e-08
2.34181e-06
2.87008e-08
2.317e-06
2.48139e-08
2.2958e-06
2.11958e-08
2.27781e-06
1.79938e-08
2.26302e-06
1.47857e-08
1.116e-08
2.25186e-06
3.46866e-06
2.18701e-08
3.48679e-06
8.39855e-08
3.49348e-06
8.87261e-08
3.49238e-06
9.22026e-08
3.48443e-06
9.38625e-08
3.47088e-06
9.09508e-08
3.45302e-06
8.56158e-08
3.43207e-06
7.96929e-08
3.40915e-06
7.37698e-08
3.38516e-06
6.80202e-08
3.36082e-06
6.25127e-08
3.33662e-06
5.72996e-08
3.31297e-06
5.23569e-08
3.29012e-06
4.76598e-08
3.26829e-06
4.30242e-08
3.24771e-06
3.85713e-08
3.22911e-06
3.33875e-08
2.66026e-08
3.21367e-06
3.66802e-06
1.63714e-08
3.68033e-06
7.16706e-08
3.69005e-06
7.90026e-08
3.70011e-06
8.21459e-08
3.70926e-06
8.47052e-08
3.71641e-06
8.38037e-08
3.72144e-06
8.05807e-08
3.72457e-06
7.65642e-08
3.72603e-06
7.23116e-08
3.72608e-06
6.79719e-08
3.72497e-06
6.36218e-08
3.72294e-06
5.93286e-08
3.7202e-06
5.50969e-08
3.71695e-06
5.09029e-08
3.71335e-06
4.66228e-08
3.70976e-06
4.21645e-08
3.70617e-06
3.69755e-08
3.04635e-08
3.70231e-06
3.92496e-06
1.68011e-08
3.93559e-06
6.10428e-08
3.94318e-06
7.14127e-08
3.95024e-06
7.50808e-08
3.95698e-06
7.79684e-08
3.96284e-06
7.79469e-08
3.96788e-06
7.55397e-08
3.9723e-06
7.21439e-08
3.97619e-06
6.84167e-08
3.97962e-06
6.45417e-08
3.98264e-06
6.05984e-08
3.98532e-06
5.66493e-08
3.98772e-06
5.27016e-08
3.9899e-06
4.87239e-08
3.99191e-06
4.46089e-08
3.99385e-06
4.02232e-08
3.99555e-06
3.52769e-08
2.94258e-08
3.99659e-06
4.20773e-06
1.61981e-08
4.21612e-06
5.26549e-08
4.22232e-06
6.52072e-08
4.22785e-06
6.95495e-08
4.23335e-06
7.24655e-08
4.23845e-06
7.28473e-08
4.24307e-06
7.09266e-08
4.24729e-06
6.79197e-08
4.25119e-06
6.45099e-08
4.25483e-06
6.09038e-08
4.25824e-06
5.71856e-08
4.26148e-06
5.34159e-08
4.26457e-06
4.96075e-08
4.26756e-06
4.57308e-08
4.27047e-06
4.16991e-08
4.27329e-06
3.74024e-08
4.27589e-06
3.26779e-08
2.7361e-08
4.27795e-06
4.51043e-06
1.48552e-08
4.51716e-06
4.59273e-08
4.5229e-06
5.94638e-08
4.52808e-06
6.4368e-08
4.53328e-06
6.72664e-08
4.53821e-06
6.79145e-08
4.54273e-06
6.64086e-08
4.54689e-06
6.37627e-08
4.55076e-06
6.06376e-08
4.5544e-06
5.72602e-08
4.55786e-06
5.37254e-08
4.56118e-06
5.00977e-08
4.56439e-06
4.63988e-08
4.56751e-06
4.26073e-08
4.57055e-06
3.86624e-08
4.57347e-06
3.44867e-08
4.57615e-06
2.9997e-08
2.5144e-08
4.57836e-06
4.83416e-06
1.34193e-08
4.83994e-06
4.01406e-08
4.84562e-06
5.3788e-08
4.85079e-06
5.91972e-08
4.85591e-06
6.21397e-08
4.86082e-06
6.30064e-08
4.86536e-06
6.18691e-08
4.86956e-06
5.95614e-08
4.87349e-06
5.67049e-08
4.87721e-06
5.35435e-08
4.88075e-06
5.01847e-08
4.88415e-06
4.66979e-08
4.88743e-06
4.3115e-08
4.89061e-06
3.94265e-08
4.89367e-06
3.55975e-08
4.89658e-06
3.15832e-08
4.89922e-06
2.73567e-08
2.29357e-08
4.90142e-06
5.18096e-06
1.20353e-08
5.18609e-06
3.50154e-08
5.19166e-06
4.82193e-08
5.19685e-06
5.40097e-08
5.20197e-06
5.70138e-08
5.20693e-06
5.80467e-08
5.21157e-06
5.72282e-08
5.2159e-06
5.52353e-08
5.21996e-06
5.2639e-08
5.22381e-06
4.96936e-08
5.22748e-06
4.65174e-08
5.23099e-06
4.31851e-08
5.23437e-06
3.97384e-08
5.23761e-06
3.61821e-08
5.24071e-06
3.25044e-08
5.2436e-06
2.86895e-08
5.24621e-06
2.47466e-08
2.07224e-08
5.24842e-06
5.55268e-06
1.06881e-08
5.55724e-06
3.0457e-08
5.5626e-06
4.28607e-08
5.56778e-06
4.88331e-08
5.57292e-06
5.18682e-08
5.57796e-06
5.30084e-08
5.58273e-06
5.24552e-08
5.58721e-06
5.07515e-08
5.59144e-06
4.8407e-08
5.59546e-06
4.56801e-08
5.59928e-06
4.26967e-08
5.60292e-06
3.95369e-08
5.60641e-06
3.62508e-08
5.60973e-06
3.28579e-08
5.61287e-06
2.93658e-08
5.61578e-06
2.57815e-08
5.61839e-06
2.21347e-08
1.84845e-08
5.62063e-06
5.95108e-06
9.38389e-09
5.95515e-06
2.63884e-08
5.96025e-06
3.77639e-08
5.96538e-06
4.37018e-08
5.97053e-06
4.67179e-08
5.97562e-06
4.79108e-08
5.98051e-06
4.75651e-08
5.98515e-06
4.61172e-08
5.98955e-06
4.40102e-08
5.99373e-06
4.14997e-08
5.9977e-06
3.87172e-08
6.00149e-06
3.57464e-08
6.0051e-06
3.26443e-08
6.00851e-06
2.94435e-08
6.01171e-06
2.61663e-08
6.01466e-06
2.28363e-08
6.0173e-06
1.9493e-08
1.61983e-08
6.01959e-06
6.37805e-06
8.14337e-09
6.38171e-06
2.27264e-08
6.38654e-06
3.29383e-08
6.3916e-06
3.86431e-08
6.39673e-06
4.15817e-08
6.40186e-06
4.27799e-08
6.40684e-06
4.25837e-08
6.41161e-06
4.13531e-08
6.41615e-06
3.94657e-08
6.42048e-06
3.71663e-08
6.42461e-06
3.45893e-08
6.42854e-06
3.18207e-08
6.43226e-06
2.8923e-08
6.43576e-06
2.59377e-08
6.43903e-06
2.28987e-08
6.44203e-06
1.9839e-08
6.44472e-06
1.68019e-08
1.38456e-08
6.44707e-06
5.74183e-06
7.14671e-09
5.74465e-06
1.99021e-08
5.74852e-06
2.90703e-08
5.75273e-06
3.44401e-08
5.75704e-06
3.7264e-08
5.76139e-06
3.84356e-08
5.76565e-06
3.8323e-08
5.76975e-06
3.72448e-08
5.77369e-06
3.55283e-08
5.77745e-06
3.34024e-08
5.78104e-06
3.1001e-08
5.78445e-06
2.84118e-08
5.78767e-06
2.56985e-08
5.7907e-06
2.29102e-08
5.79351e-06
2.00846e-08
5.79609e-06
1.72612e-08
5.79841e-06
1.4481e-08
1.18003e-08
5.80046e-06
6.99922e-06
6.07815e-09
7.00223e-06
1.68994e-08
7.00643e-06
2.48698e-08
7.01112e-06
2.97438e-08
7.01602e-06
3.23618e-08
7.021e-06
3.34588e-08
7.02592e-06
3.34001e-08
7.0307e-06
3.24637e-08
7.03531e-06
3.09249e-08
7.03972e-06
2.89911e-08
7.04392e-06
2.67925e-08
7.04792e-06
2.44156e-08
7.05169e-06
2.19262e-08
7.05523e-06
1.93748e-08
7.0585e-06
1.68053e-08
7.06151e-06
1.42562e-08
7.06422e-06
1.17684e-08
9.38889e-09
7.06663e-06
8.53198e-06
4.9462e-09
8.53513e-06
1.37476e-08
8.53963e-06
2.03684e-08
8.54481e-06
2.45658e-08
8.55031e-06
2.68619e-08
8.55595e-06
2.78175e-08
8.56158e-06
2.77685e-08
8.56709e-06
2.69518e-08
8.57242e-06
2.55917e-08
8.57754e-06
2.38664e-08
8.58244e-06
2.18988e-08
8.58708e-06
1.97707e-08
8.59146e-06
1.75468e-08
8.59556e-06
1.52772e-08
8.59936e-06
1.30063e-08
8.60284e-06
1.07719e-08
8.606e-06
8.60926e-09
6.55847e-09
8.60883e-06
1.04004e-05
3.76291e-09
1.04037e-05
1.04701e-08
1.04085e-05
1.55942e-08
1.04141e-05
1.89252e-08
1.04202e-05
2.07589e-08
1.04265e-05
2.14878e-08
1.04329e-05
2.13883e-08
1.04392e-05
2.06578e-08
1.04453e-05
1.94678e-08
1.04512e-05
1.79651e-08
1.04569e-05
1.62542e-08
1.04622e-05
1.44133e-08
1.04673e-05
1.24971e-08
1.0472e-05
1.05554e-08
1.04764e-05
8.62581e-09
1.04804e-05
6.74524e-09
1.04841e-05
4.94022e-09
3.2436e-09
1.04874e-05
1.2678e-05
2.53631e-09
1.26814e-05
7.06894e-09
1.26865e-05
1.05548e-08
1.26925e-05
1.28294e-08
1.26993e-05
1.40431e-08
1.27063e-05
1.44388e-08
1.27135e-05
1.42173e-08
1.27206e-05
1.35264e-08
1.27276e-05
1.24911e-08
1.27343e-05
1.12168e-08
1.27408e-05
9.78877e-09
1.27469e-05
8.26787e-09
1.27527e-05
6.70303e-09
1.27582e-05
5.1311e-09
1.27632e-05
3.58656e-09
1.27678e-05
2.09536e-09
1.27721e-05
6.8111e-10
-6.36327e-10
1.2776e-05
1.54545e-05
1.26013e-09
1.5458e-05
3.5063e-09
1.54634e-05
5.20412e-09
1.547e-05
6.23516e-09
1.54773e-05
6.66e-09
1.54852e-05
6.60245e-09
1.54932e-05
6.17721e-09
1.55013e-05
5.47436e-09
1.55092e-05
4.56947e-09
1.55169e-05
3.52763e-09
1.55243e-05
2.40244e-09
1.55313e-05
1.23579e-09
1.55379e-05
5.99008e-11
1.55442e-05
-1.09913e-09
1.555e-05
-2.21952e-09
1.55553e-05
-3.2828e-09
1.55603e-05
-4.27509e-09
-5.18334e-09
1.55648e-05
1.8839e-05
-1.02154e-10
1.88428e-05
-3.33123e-10
1.88487e-05
-6.20678e-10
1.88559e-05
-1.03672e-09
1.88642e-05
-1.57503e-09
1.8873e-05
-2.2104e-09
1.88821e-05
-2.91998e-09
1.88912e-05
-3.68196e-09
1.89003e-05
-4.47464e-09
1.89091e-05
-5.27778e-09
1.89176e-05
-6.0746e-09
1.89256e-05
-6.85065e-09
1.89333e-05
-7.59454e-09
1.89405e-05
-8.2964e-09
1.89472e-05
-8.94801e-09
1.89535e-05
-9.54192e-09
1.89593e-05
-1.00731e-08
-1.05366e-08
1.89646e-05
2.29649e-05
-1.64787e-09
2.29693e-05
-4.73083e-09
2.2976e-05
-7.33686e-09
2.29844e-05
-9.46779e-09
2.2994e-05
-1.11505e-08
2.30043e-05
-1.24758e-08
2.30149e-05
-1.35324e-08
2.30256e-05
-1.43777e-08
2.30361e-05
-1.50454e-08
2.30464e-05
-1.55725e-08
2.30564e-05
-1.59873e-08
2.30658e-05
-1.63132e-08
2.30748e-05
-1.65615e-08
2.30832e-05
-1.67432e-08
2.30911e-05
-1.68637e-08
2.30985e-05
-1.6931e-08
2.31054e-05
-1.69474e-08
-1.69172e-08
2.31118e-05
1.68119e-05
-2.83877e-09
1.68153e-05
-8.09593e-09
1.68204e-05
-1.2493e-08
1.68269e-05
-1.5901e-08
1.68341e-05
-1.83751e-08
1.68418e-05
-2.01485e-08
1.68496e-05
-2.14197e-08
1.68575e-05
-2.2286e-08
1.68653e-05
-2.28287e-08
1.68729e-05
-2.31212e-08
1.68801e-05
-2.32339e-08
1.6887e-05
-2.32089e-08
1.68935e-05
-2.30828e-08
1.68997e-05
-2.28749e-08
1.69054e-05
-2.26075e-08
1.69108e-05
-2.22904e-08
1.69158e-05
-2.19369e-08
-2.15497e-08
1.69204e-05
1.46357e-05
-3.95908e-09
1.46389e-05
-1.13155e-08
1.46439e-05
-1.74667e-08
1.465e-05
-2.20112e-08
1.46567e-05
-2.51008e-08
1.46638e-05
-2.72112e-08
1.4671e-05
-2.86168e-08
1.46781e-05
-2.94414e-08
1.46851e-05
-2.98087e-08
1.46918e-05
-2.98509e-08
1.46983e-05
-2.96607e-08
1.47044e-05
-2.93039e-08
1.47101e-05
-2.88255e-08
1.47155e-05
-2.82634e-08
1.47205e-05
-2.76434e-08
1.47252e-05
-2.69867e-08
1.47296e-05
-2.63058e-08
-2.56112e-08
1.47337e-05
1.27411e-05
-4.97068e-09
1.27443e-05
-1.45159e-08
1.27494e-05
-2.2518e-08
1.27554e-05
-2.79708e-08
1.27617e-05
-3.14558e-08
1.27683e-05
-3.38199e-08
1.2775e-05
-3.53093e-08
1.27816e-05
-3.60242e-08
1.2788e-05
-3.61664e-08
1.2794e-05
-3.59266e-08
1.27998e-05
-3.54236e-08
1.28052e-05
-3.47346e-08
1.28103e-05
-3.39173e-08
1.28151e-05
-3.30206e-08
1.28195e-05
-3.20756e-08
1.28236e-05
-3.11084e-08
1.28274e-05
-3.01306e-08
-2.91528e-08
1.2831e-05
1.10917e-05
-5.74028e-09
1.10949e-05
-1.77425e-08
1.11003e-05
-2.78573e-08
1.11062e-05
-3.38748e-08
1.11122e-05
-3.75031e-08
1.11184e-05
-4.00359e-08
1.11247e-05
-4.15336e-08
1.11307e-05
-4.20801e-08
1.11365e-05
-4.19711e-08
1.1142e-05
-4.1443e-08
1.11472e-05
-4.06263e-08
1.11521e-05
-3.96082e-08
1.11567e-05
-3.84643e-08
1.11609e-05
-3.7249e-08
1.11648e-05
-3.60045e-08
1.11685e-05
-3.47533e-08
1.11718e-05
-3.35162e-08
-3.23021e-08
1.1175e-05
9.65563e-06
-6.15456e-09
9.65899e-06
-2.11091e-08
9.66453e-06
-3.3397e-08
9.67025e-06
-3.9594e-08
9.67607e-06
-4.3326e-08
9.68202e-06
-4.59815e-08
9.68784e-06
-4.7352e-08
9.69339e-06
-4.76362e-08
9.69867e-06
-4.72471e-08
9.70366e-06
-4.6432e-08
9.70834e-06
-4.53119e-08
9.71272e-06
-4.39839e-08
9.71679e-06
-4.25337e-08
9.72057e-06
-4.10279e-08
9.72407e-06
-3.95075e-08
9.72732e-06
-3.80002e-08
9.73032e-06
-3.65181e-08
-3.50568e-08
9.73307e-06
8.40493e-06
-5.73571e-09
8.40928e-06
-2.54542e-08
8.41465e-06
-3.87664e-08
8.41969e-06
-4.46377e-08
8.42518e-06
-4.88164e-08
8.43095e-06
-5.1749e-08
8.43655e-06
-5.29604e-08
8.44186e-06
-5.29399e-08
8.44685e-06
-5.22413e-08
8.45153e-06
-5.11135e-08
8.45589e-06
-4.9673e-08
8.45994e-06
-4.80287e-08
8.46368e-06
-4.62762e-08
8.46714e-06
-4.44868e-08
8.47033e-06
-4.27046e-08
8.47329e-06
-4.09594e-08
8.47605e-06
-3.92745e-08
-3.76629e-08
8.47865e-06
7.31364e-06
-2.08841e-09
7.32067e-06
-3.24865e-08
7.32643e-06
-4.4526e-08
7.33118e-06
-4.93883e-08
7.33648e-06
-5.41235e-08
7.34206e-06
-5.73264e-08
7.3475e-06
-5.83981e-08
7.3527e-06
-5.81414e-08
7.35764e-06
-5.71819e-08
7.36227e-06
-5.57515e-08
7.36659e-06
-5.39851e-08
7.37057e-06
-5.20107e-08
7.37424e-06
-4.9944e-08
7.37761e-06
-4.78583e-08
7.3807e-06
-4.58032e-08
7.38355e-06
-4.38096e-08
7.38617e-06
-4.18877e-08
-3.99886e-08
7.38849e-06
6.36046e-06
7.5169e-09
6.37026e-06
-4.22905e-08
6.37811e-06
-5.23736e-08
6.38512e-06
-5.64022e-08
6.39218e-06
-6.11838e-08
6.39872e-06
-6.38677e-08
6.40463e-06
-6.43036e-08
6.41008e-06
-6.35958e-08
6.41518e-06
-6.22788e-08
6.41991e-06
-6.04872e-08
6.42427e-06
-5.83446e-08
6.42826e-06
-5.59966e-08
6.43188e-06
-5.35695e-08
6.43516e-06
-5.11397e-08
6.43812e-06
-4.87644e-08
6.4408e-06
-4.64855e-08
6.44324e-06
-4.43351e-08
-4.23385e-08
6.4456e-06
5.53916e-06
1.3817e-08
5.5475e-06
-5.06232e-08
5.55581e-06
-6.0686e-08
5.56602e-06
-6.66164e-08
5.57717e-06
-7.23351e-08
5.58761e-06
-7.43063e-08
5.59676e-06
-7.34548e-08
5.60464e-06
-7.14795e-08
5.61133e-06
-6.89655e-08
5.61689e-06
-6.60516e-08
5.62141e-06
-6.28615e-08
5.62496e-06
-5.95516e-08
5.62765e-06
-5.62572e-08
5.62956e-06
-5.30514e-08
5.63078e-06
-4.99855e-08
5.63142e-06
-4.71295e-08
5.63158e-06
-4.44918e-08
-4.21697e-08
5.63141e-06
4.87157e-06
-3.01475e-08
4.88647e-06
-6.5521e-08
4.89719e-06
-7.14119e-08
4.90594e-06
-7.53675e-08
4.91295e-06
-7.93473e-08
4.91719e-06
-7.85422e-08
4.91796e-06
-7.42325e-08
4.91516e-06
-6.86801e-08
4.9091e-06
-6.29018e-08
4.90029e-06
-5.72376e-08
4.88928e-06
-5.18591e-08
4.8766e-06
-4.68671e-08
4.86268e-06
-4.23425e-08
4.8479e-06
-3.82765e-08
4.83257e-06
-3.4655e-08
4.81694e-06
-3.15008e-08
4.80128e-06
-2.88292e-08
-2.7138e-08
4.78625e-06
4.17253e-06
4.10701e-06
4.0356e-06
3.96023e-06
3.88088e-06
3.80234e-06
3.72811e-06
3.65943e-06
3.59652e-06
3.53929e-06
3.48743e-06
3.44056e-06
3.39822e-06
3.35994e-06
3.32528e-06
3.29378e-06
3.26495e-06
3.23782e-06
1.50573e-08
-1.51525e-08
4.04646e-08
-2.55082e-08
6.61352e-08
-2.57918e-08
8.83088e-08
-2.22469e-08
1.0498e-07
-1.67837e-08
1.1541e-07
-1.04994e-08
1.19247e-07
-3.95706e-09
1.1668e-07
2.49748e-09
1.08069e-07
8.48413e-09
9.4334e-08
1.36645e-08
7.62601e-08
1.794e-08
5.48365e-08
2.13517e-08
3.06749e-08
2.40169e-08
4.49629e-09
2.61021e-08
-2.36217e-08
2.79668e-08
-5.37519e-08
3.0061e-08
-8.62378e-08
3.23455e-08
-1.21055e-07
3.4762e-08
-1.58564e-07
3.73877e-08
-1.98819e-07
4.02149e-08
-2.42106e-07
4.31787e-08
-2.88329e-07
4.61977e-08
-3.37603e-07
4.91819e-08
-3.89683e-07
5.20635e-08
-4.44525e-07
5.47572e-08
-5.01727e-07
5.71853e-08
-5.61096e-07
5.92788e-08
-6.22113e-07
6.09951e-08
-6.84493e-07
6.22919e-08
-7.47674e-07
6.31525e-08
-8.11343e-07
6.35738e-08
-8.74963e-07
6.35843e-08
-9.38273e-07
6.32152e-08
-1.00083e-06
6.25182e-08
-1.06247e-06
6.15386e-08
-1.12286e-06
6.03353e-08
-1.18191e-06
5.89542e-08
-1.2394e-06
5.74517e-08
-1.29535e-06
5.58661e-08
-1.34963e-06
5.42426e-08
-1.40232e-06
5.26066e-08
-1.45334e-06
5.09903e-08
-1.50282e-06
4.94067e-08
-1.55072e-06
4.78772e-08
-1.5972e-06
4.64048e-08
-1.64223e-06
4.50022e-08
-1.68596e-06
4.36658e-08
-1.7284e-06
4.24027e-08
-1.76967e-06
4.12056e-08
-1.80978e-06
4.00783e-08
-1.84885e-06
3.90099e-08
-1.88689e-06
3.80018e-08
-1.92399e-06
3.70425e-08
-1.96016e-06
3.61326e-08
-1.9955e-06
3.52607e-08
-2.02998e-06
3.44284e-08
-2.06368e-06
3.36254e-08
-2.0966e-06
3.28537e-08
-2.12879e-06
3.21036e-08
-2.16024e-06
3.13779e-08
-2.19099e-06
3.06686e-08
-2.22105e-06
2.99786e-08
-2.25044e-06
2.93018e-08
-2.27917e-06
2.86415e-08
-2.30725e-06
2.7993e-08
-2.3347e-06
2.73597e-08
-2.36151e-06
2.67389e-08
-2.38773e-06
2.61339e-08
-2.41335e-06
2.5544e-08
-2.4384e-06
2.49715e-08
-2.46288e-06
2.44174e-08
-2.48684e-06
2.38833e-08
-2.51027e-06
2.33721e-08
-2.53324e-06
2.28832e-08
-2.55571e-06
2.2421e-08
-2.57779e-06
2.19832e-08
-2.59943e-06
2.15757e-08
-2.62073e-06
2.11966e-08
-2.64164e-06
2.0851e-08
-2.66228e-06
2.05306e-08
-2.68259e-06
2.0243e-08
-2.70267e-06
1.99808e-08
-2.72247e-06
1.97489e-08
-2.7421e-06
1.95301e-08
-2.76148e-06
1.93324e-08
-2.78071e-06
1.91414e-08
-2.79969e-06
1.89636e-08
-2.81848e-06
1.8781e-08
-2.83703e-06
1.86031e-08
-2.85533e-06
1.84215e-08
-2.87342e-06
1.81962e-08
-2.89124e-06
1.79151e-08
-2.90873e-06
1.75614e-08
-2.92577e-06
1.71216e-08
-2.94226e-06
1.65484e-08
-2.9578e-06
1.56112e-08
-2.97235e-06
1.45924e-08
-2.98631e-06
1.40028e-08
-2.99912e-06
1.28186e-08
-3.0105e-06
1.13709e-08
-3.02048e-06
9.92878e-09
-3.02865e-06
8.06126e-09
-3.03478e-06
5.98185e-09
-3.03858e-06
3.5736e-09
-3.03986e-06
1.03208e-09
-3.0388e-06
-1.35016e-09
-3.0352e-06
-3.87364e-09
-3.02876e-06
-6.71824e-09
-3.01993e-06
-9.07301e-09
-3.00836e-06
-1.1818e-08
-2.99353e-06
-1.50234e-08
-2.97559e-06
-1.81463e-08
-2.95436e-06
-2.13954e-08
-2.92995e-06
-2.45656e-08
-2.90197e-06
-2.80901e-08
-2.87016e-06
-3.193e-08
-2.83467e-06
-3.55597e-08
-2.79551e-06
-3.92194e-08
-2.7524e-06
-4.31095e-08
-2.70534e-06
-4.70777e-08
-2.65439e-06
-5.10001e-08
-2.59947e-06
-5.50629e-08
-2.54053e-06
-5.90798e-08
-2.47759e-06
-6.30939e-08
-2.41062e-06
-6.70314e-08
-2.33974e-06
-7.09154e-08
-2.26497e-06
-7.46927e-08
-2.18648e-06
-7.83848e-08
-2.10434e-06
-8.19394e-08
-2.01876e-06
-8.53714e-08
-1.92985e-06
-8.86316e-08
-1.83782e-06
-9.17284e-08
-1.74286e-06
-9.46199e-08
-1.64521e-06
-9.73099e-08
-1.54508e-06
-9.97642e-08
-1.44273e-06
-1.01984e-07
-1.3384e-06
-1.03949e-07
-1.23239e-06
-1.05664e-07
-1.12493e-06
-1.07121e-07
-1.01631e-06
-1.08325e-07
-9.06781e-07
-1.09273e-07
-7.96614e-07
-1.09974e-07
-6.8603e-07
-1.10435e-07
-5.7526e-07
-1.10676e-07
-4.64506e-07
-1.10693e-07
-3.54014e-07
-1.10471e-07
-2.43812e-07
-1.10203e-07
-1.33543e-07
-1.10299e-07
-2.25275e-08
-1.1106e-07
8.91756e-08
-1.11765e-07
2.00104e-07
-1.10995e-07
3.09096e-07
-1.09069e-07
4.15663e-07
-1.06645e-07
5.1949e-07
-1.03911e-07
6.20375e-07
-1.00967e-07
7.18154e-07
-9.78619e-08
8.12713e-07
-9.46397e-08
9.03972e-07
-9.13377e-08
9.91891e-07
-8.79941e-08
1.07644e-06
-8.46236e-08
1.15762e-06
-8.12423e-08
1.23545e-06
-7.78904e-08
1.30997e-06
-7.45763e-08
1.38121e-06
-7.12904e-08
1.44921e-06
-6.80496e-08
1.51405e-06
-6.48695e-08
1.57577e-06
-6.17612e-08
1.63445e-06
-5.87031e-08
1.69009e-06
-5.56769e-08
1.74274e-06
-5.267e-08
1.79238e-06
-4.96581e-08
1.83895e-06
-4.65856e-08
1.8823e-06
-4.33729e-08
1.92215e-06
-3.98683e-08
1.95792e-06
-3.57873e-08
1.98843e-06
-3.05377e-08
2.01108e-06
-2.26779e-08
2.01799e-06
-6.93853e-09
1.98779e-06
3.0178e-08
9.81416e-08
1.88964e-06
2.57926e-08
-4.10087e-08
4.31256e-08
-4.28973e-08
5.22469e-08
-3.49601e-08
5.58799e-08
-2.59114e-08
5.52774e-08
-1.62192e-08
5.0939e-08
-6.18959e-09
4.30784e-08
3.86514e-09
3.18439e-08
1.37029e-08
1.71774e-08
2.31112e-08
-1.07227e-09
3.18841e-08
-2.30494e-08
3.98778e-08
-4.87795e-08
4.70526e-08
-7.82758e-08
5.34759e-08
-1.11511e-07
5.93102e-08
-1.48361e-07
6.47805e-08
-1.88432e-07
7.01071e-08
-2.31554e-07
7.54321e-08
-2.77643e-07
8.08264e-08
-3.26588e-07
8.62993e-08
-3.78189e-07
9.17959e-08
-4.32253e-07
9.7212e-08
-4.88491e-07
1.02417e-07
-5.46614e-07
1.07276e-07
-6.06226e-07
1.11661e-07
-6.66956e-07
1.15458e-07
-7.28364e-07
1.18575e-07
-7.9007e-07
1.20953e-07
-8.51658e-07
1.22564e-07
-9.12801e-07
1.23401e-07
-9.73158e-07
1.23488e-07
-1.0325e-06
1.22875e-07
-1.09058e-06
1.21641e-07
-1.14727e-06
1.19873e-07
-1.20245e-06
1.17666e-07
-1.25606e-06
1.1511e-07
-1.30805e-06
1.12296e-07
-1.35844e-06
1.09301e-07
-1.40721e-06
1.062e-07
-1.45444e-06
1.03056e-07
-1.50014e-06
9.99215e-08
-1.5444e-06
9.68368e-08
-1.58727e-06
9.38345e-08
-1.62883e-06
9.09364e-08
-1.66914e-06
8.81588e-08
-1.70827e-06
8.55094e-08
-1.74628e-06
8.29933e-08
-1.78326e-06
8.0609e-08
-1.81923e-06
7.83546e-08
-1.85428e-06
7.62227e-08
-1.88843e-06
7.42072e-08
-1.92175e-06
7.22981e-08
-1.95426e-06
7.04875e-08
-1.98602e-06
6.87643e-08
-2.01703e-06
6.71209e-08
-2.04736e-06
6.55468e-08
-2.077e-06
6.40354e-08
-2.10599e-06
6.25775e-08
-2.13434e-06
6.11682e-08
-2.16208e-06
5.97996e-08
-2.18922e-06
5.84685e-08
-2.21577e-06
5.71689e-08
-2.24173e-06
5.58996e-08
-2.26714e-06
5.46564e-08
-2.29198e-06
5.34396e-08
-2.31629e-06
5.22467e-08
-2.34006e-06
5.10796e-08
-2.3633e-06
4.99374e-08
-2.38604e-06
4.88231e-08
-2.40827e-06
4.77375e-08
-2.43003e-06
4.66839e-08
-2.45132e-06
4.5664e-08
-2.47216e-06
4.46809e-08
-2.49256e-06
4.37369e-08
-2.51255e-06
4.28341e-08
-2.53214e-06
4.19738e-08
-2.55137e-06
4.11575e-08
-2.57022e-06
4.03883e-08
-2.58874e-06
3.96663e-08
-2.60693e-06
3.89912e-08
-2.62481e-06
3.83596e-08
-2.64238e-06
3.77714e-08
-2.65967e-06
3.722e-08
-2.67666e-06
3.66994e-08
-2.69338e-06
3.61963e-08
-2.70979e-06
3.57043e-08
-2.7259e-06
3.52109e-08
-2.74167e-06
3.47061e-08
-2.75706e-06
3.41725e-08
-2.77202e-06
3.36053e-08
-2.78651e-06
3.29694e-08
-2.80048e-06
3.22341e-08
-2.81388e-06
3.1363e-08
-2.82659e-06
3.03243e-08
-2.83853e-06
2.90923e-08
-2.84956e-06
2.76176e-08
-2.85977e-06
2.58516e-08
-2.86904e-06
2.38841e-08
-2.87686e-06
2.18368e-08
-2.88346e-06
1.94218e-08
-2.88874e-06
1.66363e-08
-2.89245e-06
1.35828e-08
-2.89465e-06
1.019e-08
-2.89527e-06
6.47722e-09
-2.89434e-06
2.48688e-09
-2.89173e-06
-1.75931e-09
-2.88702e-06
-6.23821e-09
-2.88005e-06
-1.10391e-08
-2.8707e-06
-1.62319e-08
-2.85839e-06
-2.15601e-08
-2.84312e-06
-2.72269e-08
-2.82497e-06
-3.33143e-08
-2.80363e-06
-3.96101e-08
-2.77898e-06
-4.61561e-08
-2.75071e-06
-5.29203e-08
-2.7189e-06
-5.99862e-08
-2.68355e-06
-6.73487e-08
-2.64434e-06
-7.48187e-08
-2.60116e-06
-8.24198e-08
-2.55406e-06
-9.02143e-08
-2.50301e-06
-9.81345e-08
-2.44789e-06
-1.06168e-07
-2.38876e-06
-1.14279e-07
-2.32556e-06
-1.2239e-07
-2.25828e-06
-1.30464e-07
-2.18693e-06
-1.38435e-07
-2.11157e-06
-1.4628e-07
-2.03228e-06
-1.53947e-07
-1.94918e-06
-1.61416e-07
-1.86239e-06
-1.68632e-07
-1.77205e-06
-1.75574e-07
-1.67834e-06
-1.82188e-07
-1.58145e-06
-1.88447e-07
-1.48159e-06
-1.94299e-07
-1.37898e-06
-1.99723e-07
-1.27387e-06
-2.04675e-07
-1.16652e-06
-2.09137e-07
-1.05719e-06
-2.13084e-07
-9.46158e-07
-2.16513e-07
-8.33698e-07
-2.19412e-07
-7.20092e-07
-2.21789e-07
-6.05606e-07
-2.23637e-07
-4.90512e-07
-2.24981e-07
-3.75056e-07
-2.25825e-07
-2.59473e-07
-2.26224e-07
-1.43835e-07
-2.2631e-07
-2.81233e-08
-2.26184e-07
8.73647e-08
-2.25699e-07
2.01881e-07
-2.24841e-07
3.14352e-07
-2.23557e-07
4.24037e-07
-2.21489e-07
5.31269e-07
-2.18265e-07
6.36237e-07
-2.14084e-07
7.38778e-07
-2.09231e-07
8.38706e-07
-2.03892e-07
9.35867e-07
-1.98177e-07
1.03013e-06
-1.92179e-07
1.1214e-06
-1.85961e-07
1.20961e-06
-1.79599e-07
1.29471e-06
-1.73142e-07
1.37667e-06
-1.66636e-07
1.45549e-06
-1.60108e-07
1.53117e-06
-1.53612e-07
1.60372e-06
-1.47167e-07
1.67319e-06
-1.40797e-07
1.73962e-06
-1.34517e-07
1.80307e-06
-1.28351e-07
1.86359e-06
-1.22305e-07
1.92122e-06
-1.16355e-07
1.97599e-06
-1.10468e-07
2.02792e-06
-1.04621e-07
2.077e-06
-9.87547e-08
2.12317e-06
-9.27722e-08
2.16629e-06
-8.65114e-08
2.2061e-06
-7.96929e-08
2.24207e-06
-7.17721e-08
2.2733e-06
-6.17827e-08
2.298e-06
-4.74036e-08
2.31528e-06
-2.424e-08
2.32461e-06
2.08322e-08
1.08854e-07
2.31389e-06
1.46708e-08
-5.57301e-08
1.91693e-08
-4.74356e-08
1.76429e-08
-3.34655e-08
1.19661e-08
-2.02545e-08
3.0917e-09
-7.36861e-09
-8.48529e-09
5.37031e-09
-2.25872e-08
1.79451e-08
-3.91734e-08
3.02728e-08
-5.83308e-08
4.22474e-08
-8.02094e-08
5.37469e-08
-1.05019e-07
6.46664e-08
-1.32934e-07
7.49526e-08
-1.64097e-07
8.46193e-08
-1.98542e-07
9.37412e-08
-2.36209e-07
1.02428e-07
-2.76906e-07
1.1079e-07
-3.20402e-07
1.18908e-07
-3.66404e-07
1.26815e-07
-4.14612e-07
1.34488e-07
-4.6468e-07
1.41851e-07
-5.16277e-07
1.48791e-07
-5.69047e-07
1.55174e-07
-6.22658e-07
1.60868e-07
-6.76763e-07
1.65754e-07
-7.3106e-07
1.69736e-07
-7.85249e-07
1.72751e-07
-8.39082e-07
1.74766e-07
-8.92314e-07
1.75781e-07
-9.44769e-07
1.75835e-07
-9.96299e-07
1.75002e-07
-1.04682e-06
1.73372e-07
-1.09624e-06
1.71051e-07
-1.14454e-06
1.68148e-07
-1.19167e-06
1.64776e-07
-1.23762e-06
1.61043e-07
-1.28239e-06
1.5705e-07
-1.326e-06
1.52887e-07
-1.36845e-06
1.48635e-07
-1.40978e-06
1.44362e-07
-1.45e-06
1.40125e-07
-1.48915e-06
1.3597e-07
-1.52726e-06
1.31929e-07
-1.56437e-06
1.28028e-07
-1.60051e-06
1.24283e-07
-1.63572e-06
1.20704e-07
-1.67004e-06
1.17294e-07
-1.7035e-06
1.14053e-07
-1.73614e-06
1.10976e-07
-1.76799e-06
1.08056e-07
-1.79909e-06
1.05283e-07
-1.82945e-06
1.02648e-07
-1.85912e-06
1.00138e-07
-1.88812e-06
9.77415e-08
-1.91647e-06
9.54477e-08
-1.94419e-06
9.32449e-08
-1.9713e-06
9.11227e-08
-1.99782e-06
8.90712e-08
-2.02376e-06
8.70821e-08
-2.04914e-06
8.51472e-08
-2.07396e-06
8.32603e-08
-2.09823e-06
8.14158e-08
-2.12197e-06
7.961e-08
-2.14519e-06
7.78395e-08
-2.16788e-06
7.6103e-08
-2.19007e-06
7.43994e-08
-2.21175e-06
7.27295e-08
-2.23293e-06
7.10941e-08
-2.25364e-06
6.94959e-08
-2.27387e-06
6.79373e-08
-2.29363e-06
6.64216e-08
-2.31295e-06
6.4952e-08
-2.33182e-06
6.35323e-08
-2.35028e-06
6.21656e-08
-2.36833e-06
6.08545e-08
-2.38598e-06
5.96013e-08
-2.40326e-06
5.84081e-08
-2.42018e-06
5.72763e-08
-2.43675e-06
5.62063e-08
-2.45298e-06
5.51963e-08
-2.46889e-06
5.42427e-08
-2.48449e-06
5.33414e-08
-2.49979e-06
5.24843e-08
-2.51478e-06
5.16605e-08
-2.52947e-06
5.08555e-08
-2.54384e-06
5.00552e-08
-2.5579e-06
4.92418e-08
-2.57161e-06
4.83968e-08
-2.58494e-06
4.74993e-08
-2.59784e-06
4.65241e-08
-2.61027e-06
4.54429e-08
-2.6222e-06
4.42075e-08
-2.63359e-06
4.27761e-08
-2.64436e-06
4.11156e-08
-2.65443e-06
3.91825e-08
-2.66374e-06
3.69448e-08
-2.67225e-06
3.43664e-08
-2.67982e-06
3.14661e-08
-2.68624e-06
2.82599e-08
-2.69151e-06
2.46736e-08
-2.69554e-06
2.06431e-08
-2.6982e-06
1.6195e-08
-2.6994e-06
1.13174e-08
-2.69902e-06
5.99031e-09
-2.69689e-06
2.33348e-10
-2.69281e-06
-5.98199e-09
-2.68654e-06
-1.26406e-08
-2.67795e-06
-1.97685e-08
-2.66687e-06
-2.74256e-08
-2.65304e-06
-3.55174e-08
-2.63631e-06
-4.40511e-08
-2.61665e-06
-5.3085e-08
-2.59383e-06
-6.25116e-08
-2.56772e-06
-7.23475e-08
-2.53812e-06
-8.25756e-08
-2.50499e-06
-9.31806e-08
-2.46824e-06
-1.04139e-07
-2.42771e-06
-1.1538e-07
-2.38328e-06
-1.26849e-07
-2.33495e-06
-1.38548e-07
-2.28267e-06
-1.50426e-07
-2.22639e-06
-1.62488e-07
-2.1661e-06
-1.74633e-07
-2.10178e-06
-1.86799e-07
-2.03339e-06
-1.98901e-07
-1.96099e-06
-2.10877e-07
-1.88462e-06
-2.22657e-07
-1.80436e-06
-2.34187e-07
-1.72031e-06
-2.45404e-07
-1.63263e-06
-2.5625e-07
-1.54144e-06
-2.66664e-07
-1.44694e-06
-2.76585e-07
-1.34931e-06
-2.85951e-07
-1.24878e-06
-2.94702e-07
-1.14558e-06
-3.02787e-07
-1.03996e-06
-3.10155e-07
-9.32193e-07
-3.16769e-07
-8.22547e-07
-3.226e-07
-7.11303e-07
-3.27631e-07
-5.9875e-07
-3.31854e-07
-4.85167e-07
-3.35269e-07
-3.70836e-07
-3.37885e-07
-2.56022e-07
-3.39722e-07
-1.40946e-07
-3.40846e-07
-2.58028e-08
-3.41321e-07
8.90662e-08
-3.41146e-07
2.03179e-07
-3.40268e-07
3.16096e-07
-3.38597e-07
4.27405e-07
-3.36132e-07
5.36656e-07
-3.32798e-07
6.43558e-07
-3.2838e-07
7.48097e-07
-3.228e-07
8.50232e-07
-3.16214e-07
9.49824e-07
-3.08823e-07
1.04673e-06
-3.00797e-07
1.14082e-06
-2.9227e-07
1.232e-06
-2.83352e-07
1.32017e-06
-2.74142e-07
1.4053e-06
-2.64727e-07
1.48734e-06
-2.55185e-07
1.56628e-06
-2.45575e-07
1.64212e-06
-2.35948e-07
1.71487e-06
-2.26365e-07
1.78458e-06
-2.16878e-07
1.8513e-06
-2.07515e-07
1.91508e-06
-1.98298e-07
1.97598e-06
-1.89245e-07
2.03404e-06
-1.80366e-07
2.08933e-06
-1.71635e-07
2.14187e-06
-1.63012e-07
2.19171e-06
-1.54448e-07
2.23882e-06
-1.45864e-07
2.28317e-06
-1.37116e-07
2.32464e-06
-1.27979e-07
2.36301e-06
-1.18058e-07
2.39788e-06
-1.06636e-07
2.42858e-06
-9.24897e-08
2.45418e-06
-7.30045e-08
2.47379e-06
-4.38526e-08
2.48922e-06
5.40045e-09
9.35103e-08
2.50458e-06
6.69315e-10
-5.64449e-08
-6.20645e-09
-4.05918e-08
-1.58752e-08
-2.38214e-08
-2.78378e-08
-8.30709e-09
-4.18244e-08
6.6007e-09
-5.76886e-08
2.12227e-08
-7.54199e-08
3.56607e-08
-9.5067e-08
4.99092e-08
-1.16745e-07
6.39106e-08
-1.40591e-07
7.75831e-08
-1.66781e-07
9.08419e-08
-1.95459e-07
1.03621e-07
-2.26738e-07
1.15884e-07
-2.60632e-07
1.27626e-07
-2.97082e-07
1.38864e-07
-3.3592e-07
1.49618e-07
-3.76918e-07
1.59892e-07
-4.19778e-07
1.69665e-07
-4.64187e-07
1.78883e-07
-5.09804e-07
1.87457e-07
-5.5631e-07
1.95283e-07
-6.03391e-07
2.02245e-07
-6.50775e-07
2.08237e-07
-6.98203e-07
2.1317e-07
-7.45466e-07
2.16983e-07
-7.92375e-07
2.19648e-07
-8.38794e-07
2.21168e-07
-8.84606e-07
2.2158e-07
-9.29743e-07
2.20955e-07
-9.74139e-07
2.19385e-07
-1.01776e-06
2.16978e-07
-1.06057e-06
2.13851e-07
-1.10257e-06
2.10123e-07
-1.14371e-06
2.05909e-07
-1.18401e-06
2.01323e-07
-1.22344e-06
1.9647e-07
-1.26201e-06
1.91445e-07
-1.29972e-06
1.86333e-07
-1.33658e-06
1.81203e-07
-1.37258e-06
1.76117e-07
-1.40774e-06
1.7112e-07
-1.44207e-06
1.6625e-07
-1.47559e-06
1.61534e-07
-1.50831e-06
1.5699e-07
-1.54025e-06
1.52631e-07
-1.57143e-06
1.48461e-07
-1.60187e-06
1.44481e-07
-1.6316e-06
1.40686e-07
-1.66063e-06
1.3707e-07
-1.68898e-06
1.33623e-07
-1.71668e-06
1.30334e-07
-1.74375e-06
1.2719e-07
-1.77021e-06
1.24179e-07
-1.79606e-06
1.21287e-07
-1.82134e-06
1.18501e-07
-1.84604e-06
1.1581e-07
-1.8702e-06
1.13203e-07
-1.8938e-06
1.10668e-07
-1.91687e-06
1.08197e-07
-1.93942e-06
1.05783e-07
-1.96144e-06
1.03418e-07
-1.98295e-06
1.01099e-07
-2.00396e-06
9.88219e-08
-2.02446e-06
9.65848e-08
-2.04447e-06
9.43873e-08
-2.064e-06
9.223e-08
-2.08304e-06
9.01151e-08
-2.10161e-06
8.80452e-08
-2.11972e-06
8.60242e-08
-2.13738e-06
8.40561e-08
-2.15459e-06
8.21456e-08
-2.17138e-06
8.02969e-08
-2.18775e-06
7.85146e-08
-2.20372e-06
7.68024e-08
-2.2193e-06
7.51631e-08
-2.23451e-06
7.35988e-08
-2.24937e-06
7.21113e-08
-2.26388e-06
7.06999e-08
-2.27807e-06
6.93623e-08
-2.29194e-06
6.80937e-08
-2.30551e-06
6.68874e-08
-2.31878e-06
6.57329e-08
-2.33176e-06
6.46163e-08
-2.34445e-06
6.35202e-08
-2.35684e-06
6.24248e-08
-2.36892e-06
6.13074e-08
-2.38068e-06
6.01421e-08
-2.39209e-06
5.89002e-08
-2.4031e-06
5.75528e-08
-2.41368e-06
5.60513e-08
-2.42381e-06
5.43593e-08
-2.43344e-06
5.24204e-08
-2.44251e-06
5.01928e-08
-2.45095e-06
4.76295e-08
-2.45869e-06
4.46915e-08
-2.46566e-06
4.13404e-08
-2.47177e-06
3.75624e-08
-2.47686e-06
3.33435e-08
-2.48086e-06
2.86459e-08
-2.48366e-06
2.34132e-08
-2.48515e-06
1.76289e-08
-2.4852e-06
1.12752e-08
-2.48363e-06
4.32619e-09
-2.48029e-06
-3.223e-09
-2.475e-06
-1.13995e-08
-2.46756e-06
-2.0196e-08
-2.45781e-06
-2.96314e-08
-2.4456e-06
-3.97352e-08
-2.43075e-06
-5.0466e-08