/*--------------------------------*- C++ -*----------------------------------*\
| =========                 |                                                 |
| \\      /  F ield         | OpenFOAM: The Open Source CFD Toolbox           |
|  \\    /   O peration     | Version:  2406                                  |
|   \\  /    A nd           | Website:  www.openfoam.com                      |
|    \\/     M anipulation  |                                                 |
\*---------------------------------------------------------------------------*/
FoamFile
{
    version     2.0;
    format      ascii;
    arch        "LSB;label=32;scalar=64";
    class       volVectorField;
    location    "100";
    object      U;
}
// * * * * * * * * * * * * * * * * * * * * * * * * * * * * * * * * * * * * * //

dimensions      [0 1 -1 0 0 0 0];

internalField   nonuniform List<vector> 
12225
(
(9.8412 -0.956338 0)
(9.59261 -0.887935 0)
(9.31778 -0.594514 0)
(9.01514 -0.370048 0)
(8.72646 -0.22604 0)
(8.46816 -0.137989 0)
(8.24138 -0.0845047 0)
(8.04369 -0.0517031 0)
(7.87219 -0.0314503 0)
(7.72384 -0.0187467 0)
(7.59549 -0.0108366 0)
(7.48413 -0.00593491 0)
(7.38756 -0.00298624 0)
(7.30388 -0.00135019 0)
(7.23153 -0.000579172 0)
(7.17154 -0.00107445 0)
(7.11493 0.00151349 0)
(7.09093 -0.0181606 0)
(10.0721 0.25584 0)
(10.1867 0.418341 0)
(10.2285 0.384106 0)
(10.2298 0.310362 0)
(10.2116 0.245626 0)
(10.1798 0.19536 0)
(10.134 0.157543 0)
(10.0766 0.129517 0)
(10.0116 0.10866 0)
(9.94239 0.0928393 0)
(9.87124 0.0805995 0)
(9.79996 0.0709019 0)
(9.72966 0.0629965 0)
(9.6615 0.0563918 0)
(9.59589 0.0504291 0)
(9.53384 0.045514 0)
(9.47583 0.0385266 0)
(9.424 0.0378299 0)
(10.0032 0.0599498 0)
(10.0309 0.0482582 0)
(10.0615 0.00994954 0)
(10.0899 -9.09021e-05 0)
(10.1154 0.00804405 0)
(10.138 0.0192615 0)
(10.1553 0.0288048 0)
(10.1665 0.0362343 0)
(10.1725 0.0417292 0)
(10.1744 0.0455089 0)
(10.1728 0.0478733 0)
(10.1684 0.0491229 0)
(10.1618 0.0494774 0)
(10.1535 0.0490698 0)
(10.144 0.0479133 0)
(10.134 0.0459695 0)
(10.1241 0.0428725 0)
(10.1133 0.0371802 0)
(9.99715 0.0099041 0)
(10.009 0.0260574 0)
(10.0343 0.0382335 0)
(10.0556 0.0532861 0)
(10.0724 0.0647768 0)
(10.088 0.0700684 0)
(10.1021 0.0711662 0)
(10.1143 0.0703424 0)
(10.1247 0.0686809 0)
(10.134 0.0666105 0)
(10.1422 0.0643191 0)
(10.1494 0.0619232 0)
(10.1559 0.0594294 0)
(10.1617 0.0568 0)
(10.167 0.0538741 0)
(10.1719 0.0504716 0)
(10.1766 0.0460342 0)
(10.1804 0.0393961 0)
(9.99907 0.00679336 0)
(10.0082 0.0342535 0)
(10.028 0.0482596 0)
(10.0438 0.0547568 0)
(10.0562 0.0581708 0)
(10.0683 0.0592891 0)
(10.08 0.05899 0)
(10.0906 0.0581644 0)
(10.1002 0.0571706 0)
(10.1091 0.0560424 0)
(10.1175 0.0547623 0)
(10.1254 0.0533172 0)
(10.1329 0.0516706 0)
(10.1401 0.049749 0)
(10.1471 0.047409 0)
(10.1539 0.0444556 0)
(10.1604 0.0405145 0)
(10.1661 0.0352064 0)
(10.0002 0.00922274 0)
(10.008 0.0333444 0)
(10.0237 0.0439593 0)
(10.0371 0.0482304 0)
(10.0481 0.0516269 0)
(10.059 0.053952 0)
(10.0696 0.0549015 0)
(10.0794 0.0549654 0)
(10.0882 0.0545347 0)
(10.0965 0.0537366 0)
(10.1044 0.052617 0)
(10.1119 0.05121 0)
(10.1191 0.049514 0)
(10.1261 0.0474823 0)
(10.1329 0.0450067 0)
(10.1395 0.0419367 0)
(10.1458 0.0380683 0)
(10.1514 0.0332311 0)
(10.0003 0.0090999 0)
(10.007 0.0286762 0)
(10.0202 0.0387516 0)
(10.0324 0.0438186 0)
(10.0429 0.0478466 0)
(10.053 0.0505656 0)
(10.0629 0.0517124 0)
(10.072 0.0518311 0)
(10.0804 0.0513834 0)
(10.0882 0.0505388 0)
(10.0957 0.0493592 0)
(10.1029 0.0478813 0)
(10.1098 0.0461082 0)
(10.1165 0.0439978 0)
(10.1229 0.0414669 0)
(10.1291 0.0384049 0)
(10.1349 0.0347007 0)
(10.1401 0.0302878 0)
(10.0004 0.00811363 0)
(10.006 0.0246119 0)
(10.0172 0.0347136 0)
(10.0285 0.0402828 0)
(10.0384 0.0442753 0)
(10.048 0.0468916 0)
(10.0573 0.0480579 0)
(10.066 0.0482425 0)
(10.0741 0.0478548 0)
(10.0817 0.0470553 0)
(10.0889 0.0459049 0)
(10.0959 0.0444376 0)
(10.1025 0.0426606 0)
(10.1089 0.0405421 0)
(10.115 0.0380259 0)
(10.1208 0.0350415 0)
(10.1262 0.0315402 0)
(10.1309 0.0275235 0)
(10.0004 0.00717324 0)
(10.0052 0.0214009 0)
(10.0147 0.0310696 0)
(10.025 0.0366616 0)
(10.0344 0.040461 0)
(10.0434 0.0429783 0)
(10.0522 0.0442154 0)
(10.0606 0.0445104 0)
(10.0685 0.0442069 0)
(10.0759 0.0434645 0)
(10.0829 0.0423503 0)
(10.0896 0.0409012 0)
(10.0961 0.0391317 0)
(10.1022 0.0370256 0)
(10.108 0.0345519 0)
(10.1135 0.0316751 0)
(10.1185 0.0283874 0)
(10.123 0.0247274 0)
(10.0004 0.00632917 0)
(10.0045 0.0186093 0)
(10.0126 0.0275185 0)
(10.0218 0.0329588 0)
(10.0306 0.0365957 0)
(10.0391 0.0390248 0)
(10.0475 0.0403009 0)
(10.0556 0.0406705 0)
(10.0632 0.0404251 0)
(10.0704 0.0397253 0)
(10.0772 0.0386432 0)
(10.0838 0.0372192 0)
(10.09 0.0354747 0)
(10.0959 0.0334083 0)
(10.1014 0.0310095 0)
(10.1066 0.0282704 0)
(10.1113 0.0252075 0)
(10.1155 0.0218768 0)
(10.0004 0.00553421 0)
(10.0039 0.016094 0)
(10.0108 0.0241261 0)
(10.019 0.0293067 0)
(10.0272 0.0327616 0)
(10.0352 0.0350604 0)
(10.0431 0.0363131 0)
(10.0508 0.0367123 0)
(10.0581 0.0365012 0)
(10.0651 0.0358329 0)
(10.0717 0.0347822 0)
(10.078 0.033392 0)
(10.084 0.0316899 0)
(10.0897 0.029687 0)
(10.095 0.0273893 0)
(10.1 0.0248076 0)
(10.1044 0.0219726 0)
(10.1085 0.0189462 0)
(10.0003 0.00482462 0)
(10.0034 0.0139776 0)
(10.0094 0.0211744 0)
(10.0168 0.0260224 0)
(10.0244 0.0292653 0)
(10.032 0.0314078 0)
(10.0395 0.032597 0)
(10.0468 0.0329918 0)
(10.0538 0.0327942 0)
(10.0605 0.0321457 0)
(10.0669 0.0311218 0)
(10.073 0.0297678 0)
(10.0788 0.0281158 0)
(10.0843 0.0261872 0)
(10.0894 0.0239988 0)
(10.0941 0.0215728 0)
(10.0983 0.0189456 0)
(10.1022 0.0161795 0)
(10.0003 0.00415934 0)
(10.003 0.0120356 0)
(10.0082 0.0183855 0)
(10.0149 0.0228196 0)
(10.0219 0.0258114 0)
(10.029 0.0277754 0)
(10.0361 0.0288724 0)
(10.0431 0.0292384 0)
(10.0498 0.0290392 0)
(10.0562 0.028403 0)
(10.0624 0.0274046 0)
(10.0683 0.0260908 0)
(10.0738 0.024497 0)
(10.0791 0.0226518 0)
(10.0839 0.0205803 0)
(10.0884 0.0183118 0)
(10.0925 0.0158842 0)
(10.0962 0.0133569 0)
(10.0003 0.00346637 0)
(10.0026 0.0100104 0)
(10.0071 0.0153933 0)
(10.013 0.0192743 0)
(10.0195 0.0219209 0)
(10.026 0.0236417 0)
(10.0327 0.0245938 0)
(10.0392 0.0248931 0)
(10.0456 0.0246708 0)
(10.0517 0.0240372 0)
(10.0576 0.0230647 0)
(10.0632 0.0218003 0)
(10.0685 0.0202815 0)
(10.0735 0.0185406 0)
(10.0781 0.0166095 0)
(10.0824 0.0145209 0)
(10.0863 0.0123124 0)
(10.0898 0.0100365 0)
(10.0002 0.00274197 0)
(10.0022 0.00789887 0)
(10.0061 0.0122088 0)
(10.0113 0.0153954 0)
(10.0171 0.0175846 0)
(10.0231 0.0189826 0)
(10.0292 0.0197245 0)
(10.0354 0.0199082 0)
(10.0414 0.019633 0)
(10.0472 0.0189881 0)
(10.0527 0.0180389 0)
(10.058 0.0168322 0)
(10.063 0.0154044 0)
(10.0677 0.0137897 0)
(10.0721 0.0120212 0)
(10.0762 0.0101331 0)
(10.0799 0.00815876 0)
(10.0833 0.00614349 0)
(10.0002 0.00198679 0)
(10.0019 0.00570577 0)
(10.0052 0.00884542 0)
(10.0097 0.0111966 0)
(10.0149 0.0128013 0)
(10.0204 0.0137808 0)
(10.026 0.0142359 0)
(10.0317 0.0142436 0)
(10.0373 0.0138754 0)
(10.0427 0.0131978 0)
(10.0479 0.0122655 0)
(10.0529 0.0111209 0)
(10.0576 0.00979774 0)
(10.0621 0.00832724 0)
(10.0662 0.0067403 0)
(10.07 0.00506798 0)
(10.0735 0.00333931 0)
(10.0768 0.00158907 0)
(10.0002 0.00120015 0)
(10.0016 0.00342244 0)
(10.0045 0.00529431 0)
(10.0084 0.00667176 0)
(10.0131 0.00755642 0)
(10.0181 0.00800851 0)
(10.0232 0.00809031 0)
(10.0285 0.00785279 0)
(10.0336 0.00734248 0)
(10.0387 0.00660322 0)
(10.0436 0.00567533 0)
(10.0483 0.0045919 0)
(10.0527 0.00338073 0)
(10.0569 0.002066 0)
(10.0608 0.000672796 0)
(10.0644 -0.000774387 0)
(10.0677 -0.00225216 0)
(10.0708 -0.0037363 0)
(10.0002 0.000368183 0)
(10.0014 0.00100294 0)
(10.004 0.00149127 0)
(10.0075 0.00175061 0)
(10.0117 0.001772 0)
(10.0163 0.0015753 0)
(10.0211 0.00118474 0)
(10.026 0.000623147 0)
(10.0308 -8.68173e-05 0)
(10.0356 -0.000923547 0)
(10.0402 -0.00186646 0)
(10.0446 -0.00289641 0)
(10.0488 -0.00399597 0)
(10.0527 -0.00514974 0)
(10.0564 -0.00634228 0)
(10.0599 -0.00755771 0)
(10.0631 -0.00878086 0)
(10.066 -0.00999595 0)
(10.0001 -0.000550273 0)
(10.0013 -0.00166829 0)
(10.0037 -0.00272982 0)
(10.0071 -0.00375158 0)
(10.0111 -0.00473721 0)
(10.0155 -0.00570044 0)
(10.0201 -0.00665675 0)
(10.0247 -0.00761508 0)
(10.0294 -0.00857764 0)
(10.0339 -0.00954645 0)
(10.0383 -0.0105229 0)
(10.0426 -0.0115073 0)
(10.0466 -0.012497 0)
(10.0504 -0.0134886 0)
(10.0539 -0.0144778 0)
(10.0573 -0.01546 0)
(10.0604 -0.0164295 0)
(10.0633 -0.0173798 0)
(10.0002 -0.0014166 0)
(10.0014 -0.00419283 0)
(10.0039 -0.00673192 0)
(10.0074 -0.00896596 0)
(10.0116 -0.0108898 0)
(10.0161 -0.0125594 0)
(10.0207 -0.0140322 0)
(10.0255 -0.0153437 0)
(10.0301 -0.0165228 0)
(10.0347 -0.0175973 0)
(10.0391 -0.0185927 0)
(10.0434 -0.0195264 0)
(10.0473 -0.0204108 0)
(10.0511 -0.0212527 0)
(10.0546 -0.0220586 0)
(10.058 -0.0228329 0)
(10.061 -0.0235789 0)
(10.0639 -0.024296 0)
(10.0002 -0.0021486 0)
(10.0015 -0.00635988 0)
(10.0043 -0.010184 0)
(10.0082 -0.0134071 0)
(10.0127 -0.0160426 0)
(10.0175 -0.0182417 0)
(10.0224 -0.0201036 0)
(10.0273 -0.0216688 0)
(10.0321 -0.0229825 0)
(10.0368 -0.0241009 0)
(10.0413 -0.0250746 0)
(10.0456 -0.0259381 0)
(10.0497 -0.0267153 0)
(10.0535 -0.0274229 0)
(10.057 -0.0280756 0)
(10.0604 -0.0286843 0)
(10.0635 -0.0292572 0)
(10.0663 -0.0297986 0)
(10.0002 -0.00282414 0)
(10.0017 -0.00846353 0)
(10.0048 -0.0136021 0)
(10.0093 -0.0177235 0)
(10.0143 -0.0209134 0)
(10.0195 -0.0235049 0)
(10.0247 -0.0256526 0)
(10.0299 -0.0273985 0)
(10.035 -0.0288018 0)
(10.0399 -0.0299393 0)
(10.0446 -0.030873 0)
(10.049 -0.0316497 0)
(10.0531 -0.0323042 0)
(10.057 -0.0328661 0)
(10.0606 -0.0333572 0)
(10.0639 -0.0337951 0)
(10.0671 -0.0341903 0)
(10.0699 -0.0345494 0)
(10.0001 -0.00342458 0)
(10.0017 -0.0105434 0)
(10.0054 -0.0170064 0)
(10.0107 -0.021939 0)
(10.0164 -0.0256549 0)
(10.022 -0.0286097 0)
(10.0275 -0.0309317 0)
(10.0331 -0.0327076 0)
(10.0385 -0.0340816 0)
(10.0436 -0.0351704 0)
(10.0484 -0.0360381 0)
(10.053 -0.0367286 0)
(10.0572 -0.0372819 0)
(10.0612 -0.0377328 0)
(10.0649 -0.038108 0)
(10.0683 -0.038426 0)
(10.0715 -0.0387001 0)
(10.0744 -0.03894 0)
(10.0001 -0.00390572 0)
(10.0016 -0.013008 0)
(10.006 -0.0205108 0)
(10.0123 -0.0256462 0)
(10.0186 -0.0297788 0)
(10.0247 -0.0333206 0)
(10.0307 -0.0360029 0)
(10.0366 -0.0378546 0)
(10.0423 -0.0391426 0)
(10.0476 -0.0400695 0)
(10.0526 -0.0407333 0)
(10.0573 -0.0411967 0)
(10.0617 -0.0415169 0)
(10.0658 -0.0417414 0)
(10.0695 -0.0419039 0)
(10.073 -0.0420256 0)
(10.0763 -0.0421193 0)
(10.0792 -0.0421844 0)
(9.9998 -0.00357613 0)
(10.0011 -0.016642 0)
(10.0069 -0.0256716 0)
(10.014 -0.0299039 0)
(10.0205 -0.0332826 0)
(10.0269 -0.0367987 0)
(10.0337 -0.039798 0)
(10.0403 -0.0420444 0)
(10.0465 -0.0436952 0)
(10.0522 -0.0448998 0)
(10.0576 -0.0457404 0)
(10.0626 -0.0462904 0)
(10.0672 -0.0466252 0)
(10.0715 -0.0468091 0)
(10.0754 -0.0468895 0)
(10.0791 -0.0468999 0)
(10.0825 -0.046865 0)
(10.0857 -0.0467974 0)
(9.99829 -2.01262e-05 0)
(9.99794 -0.0176887 0)
(10.0068 -0.0316175 0)
(10.0161 -0.0377499 0)
(10.0231 -0.0404936 0)
(10.0299 -0.0420911 0)
(10.0374 -0.0430982 0)
(10.0448 -0.0438495 0)
(10.0518 -0.044508 0)
(10.0584 -0.0450801 0)
(10.0645 -0.045534 0)
(10.0701 -0.0458812 0)
(10.0754 -0.0461445 0)
(10.0802 -0.0463514 0)
(10.0846 -0.0465157 0)
(10.0887 -0.0466539 0)
(10.0924 -0.0467698 0)
(10.0957 -0.0468338 0)
(9.99413 0.00276169 0)
(9.98993 -0.00765034 0)
(10.0031 -0.0229422 0)
(10.0184 -0.0397944 0)
(10.03 -0.0532219 0)
(10.04 -0.0610296 0)
(10.0496 -0.0646018 0)
(10.0586 -0.0658894 0)
(10.0669 -0.0660215 0)
(10.0746 -0.0654426 0)
(10.0817 -0.0644338 0)
(10.0883 -0.0631855 0)
(10.0943 -0.0618617 0)
(10.0997 -0.0605421 0)
(10.1046 -0.0592914 0)
(10.109 -0.0581395 0)
(10.113 -0.0571122 0)
(10.1167 -0.0561618 0)
(9.9942 -0.0305177 0)
(9.99523 -0.0134949 0)
(10.0085 0.0214537 0)
(10.027 0.0319269 0)
(10.0467 0.0240264 0)
(10.0665 0.0114522 0)
(10.0846 -0.000296467 0)
(10.1001 -0.0105427 0)
(10.1132 -0.0192153 0)
(10.1242 -0.0263223 0)
(10.1332 -0.0319574 0)
(10.1405 -0.0363653 0)
(10.1461 -0.039777 0)
(10.1502 -0.0424077 0)
(10.153 -0.0444202 0)
(10.1547 -0.0459853 0)
(10.1554 -0.0472324 0)
(10.1551 -0.0483087 0)
(10.0368 -0.209421 0)
(10.1083 -0.365921 0)
(10.1423 -0.352784 0)
(10.1567 -0.298088 0)
(10.1695 -0.247691 0)
(10.1817 -0.206875 0)
(10.1881 -0.174459 0)
(10.1862 -0.149118 0)
(10.1768 -0.129422 0)
(10.1611 -0.113918 0)
(10.1403 -0.101542 0)
(10.1156 -0.0915378 0)
(10.0879 -0.0833708 0)
(10.058 -0.0766336 0)
(10.0267 -0.0710444 0)
(9.99453 -0.0664245 0)
(9.962 -0.0626225 0)
(9.92977 -0.0599439 0)
(9.92865 0.765532 0)
(9.83918 0.742055 0)
(9.70517 0.524412 0)
(9.52604 0.348749 0)
(9.33135 0.227645 0)
(9.13989 0.14693 0)
(8.95782 0.0935145 0)
(8.78763 0.0579087 0)
(8.6307 0.0340341 0)
(8.48768 0.0180088 0)
(8.35794 0.00733559 0)
(8.24067 0.000348182 0)
(8.13469 -0.0042109 0)
(8.03895 -0.00707434 0)
(7.95233 -0.00876095 0)
(7.87386 -0.00970695 0)
(7.80219 -0.0101959 0)
(7.73694 -0.0108157 0)
(0.00654475 -0.0112909 -6.11299e-19)
(0.0255096 -0.0291852 4.29084e-19)
(0.0471749 -0.0356559 -2.60419e-19)
(0.0688048 -0.0339975 -7.64262e-20)
(0.0867078 -0.0273966 1.1238e-19)
(0.0991103 -0.0185592 -2.61995e-20)
(0.105655 -0.00903621 -2.39136e-20)
(0.106499 0.000320995 1.06105e-19)
(0.101332 0.00883794 -6.00347e-20)
(0.0911189 0.016019 2.07339e-20)
(0.0767389 0.021702 8.98307e-21)
(0.0590189 0.0259395 -1.22808e-19)
(0.0386627 0.0289537 2.08923e-19)
(0.0161923 0.031125 2.52792e-19)
(-0.00809436 0.0327555 2.40485e-20)
(-0.0341082 0.0339585 9.94452e-20)
(-0.062018 0.0350008 3.59456e-20)
(-0.092047 0.0362357 5.6517e-20)
(-0.124366 0.0377811 7.56372e-20)
(-0.159157 0.039628 7.28028e-21)
(-0.196593 0.041694 -2.16815e-20)
(-0.236767 0.0438889 1.57989e-19)
(-0.279654 0.0461153 -1.77342e-20)
(-0.325215 0.048328 1.26802e-19)
(-0.373353 0.0504482 -2.32624e-20)
(-0.423853 0.0523947 7.83463e-20)
(-0.476448 0.0540935 3.49766e-20)
(-0.530817 0.0554903 2.01592e-20)
(-0.586605 0.056533 -7.1069e-20)
(-0.643428 0.0572005 -1.14241e-20)
(-0.70089 0.0574792 -6.97405e-20)
(-0.758605 0.0573871 3.89189e-20)
(-0.816217 0.0569436 2.65135e-20)
(-0.873407 0.0561892 -3.10591e-20)
(-0.929902 0.055161 -4.46805e-20)
(-0.98547 0.0539121 -2.81968e-21)
(-1.03993 0.0524853 1.51014e-20)
(-1.09314 0.0509347 3.53682e-20)
(-1.14501 0.0492983 2.36182e-20)
(-1.19549 0.0476208 5.2426e-20)
(-1.24454 0.0459286 1.99616e-20)
(-1.29219 0.0442544 5.07037e-21)
(-1.33844 0.0426125 -6.55353e-20)
(-1.38334 0.0410237 -1.31004e-20)
(-1.42694 0.039492 2.62484e-20)
(-1.4693 0.0380295 1.31456e-21)
(-1.51047 0.0366331 5.95087e-20)
(-1.55052 0.0353089 1.86889e-20)
(-1.58951 0.03405 7.39594e-21)
(-1.6275 0.0328597 -5.92873e-20)
(-1.66456 0.0317274 4.72078e-20)
(-1.70072 0.0306538 4.23889e-21)
(-1.73605 0.0296278 5.84163e-20)
(-1.77058 0.0286498 4.55258e-20)
(-1.80436 0.0277089 1.75777e-20)
(-1.83743 0.0268065 4.08147e-20)
(-1.8698 0.0259333 5.50917e-20)
(-1.90152 0.0250913 -6.03004e-20)
(-1.9326 0.0242713 2.41562e-20)
(-1.96306 0.0234768 2.75605e-20)
(-1.99292 0.0227008 -6.62129e-20)
(-2.02219 0.0219475 -4.35135e-20)
(-2.05089 0.0212109 3.40481e-20)
(-2.07903 0.0204959 4.09364e-20)
(-2.10662 0.0197979 1.15129e-20)
(-2.13368 0.0191225 -4.43618e-20)
(-2.1602 0.0184667 4.88892e-21)
(-2.18622 0.0178365 2.31643e-21)
(-2.21173 0.0172302 1.15602e-20)
(-2.23675 0.0166528 5.63903e-20)
(-2.2613 0.0161031 -2.80081e-21)
(-2.2854 0.0155843 -4.05107e-20)
(-2.30906 0.0150964 4.34327e-20)
(-2.33231 0.014642 1.57359e-20)
(-2.35517 0.0142227 -2.52918e-20)
(-2.37768 0.0138421 2.08643e-20)
(-2.39984 0.0135051 -3.18496e-21)
(-2.42169 0.0132148 3.95554e-20)
(-2.44326 0.0129741 1.80504e-20)
(-2.46457 0.0127844 -2.63888e-20)
(-2.48565 0.0126525 -7.45859e-21)
(-2.50653 0.0125761 1.45946e-21)
(-2.52722 0.0125503 2.86601e-20)
(-2.54775 0.0125649 3.51519e-20)
(-2.56814 0.0126277 3.05591e-20)
(-2.5884 0.0127358 -3.06168e-20)
(-2.60854 0.0128787 6.42772e-20)
(-2.62853 0.013038 -2.51795e-21)
(-2.64835 0.0132209 4.4845e-20)
(-2.66798 0.013395 -6.26619e-20)
(-2.68749 0.0135255 -3.31511e-20)
(-2.70682 0.0135959 2.74888e-20)
(-2.72593 0.0135831 3.94301e-20)
(-2.74473 0.013449 -5.90145e-21)
(-2.76312 0.0130953 -3.60827e-20)
(-2.78089 0.0120749 -3.53729e-20)
(-2.79774 0.0112853 3.58043e-20)
(-2.81387 0.0118717 -1.90518e-20)
(-2.82935 0.0111952 -4.49615e-20)
(-2.84359 0.0101698 -1.93722e-20)
(-2.85663 0.00968837 4.73741e-20)
(-2.86809 0.00875658 2.35812e-20)
(-2.87791 0.00794745 3.49898e-20)
(-2.88562 0.00701906 -2.1267e-20)
(-2.89098 0.00615024 6.73884e-21)
(-2.89397 0.00545124 2.33289e-21)
(-2.89484 0.00410359 -4.26382e-21)
(-2.8931 0.00235277 -9.19726e-21)
(-2.88888 0.00197483 -1.37691e-20)
(-2.88228 0.000936258 -2.23357e-20)
(-2.87281 -0.000912161 -3.04928e-20)
(-2.86026 -0.00231166 1.6069e-20)
(-2.84461 -0.00366477 -2.22942e-20)
(-2.82588 -0.00457908 -2.16587e-20)
(-2.80394 -0.00619649 3.78575e-20)
(-2.77832 -0.00831476 -2.21056e-21)
(-2.74908 -0.00984145 -2.36516e-20)
(-2.71622 -0.0112961 -2.41763e-20)
(-2.67969 -0.0132233 2.17747e-20)
(-2.63917 -0.0152446 1.5737e-21)
(-2.59489 -0.0170683 6.04332e-21)
(-2.54667 -0.0192079 -3.72737e-21)
(-2.49448 -0.0213436 -1.00434e-20)
(-2.43828 -0.0235575 7.58148e-21)
(-2.37805 -0.0258064 -5.67438e-21)
(-2.31382 -0.028109 3.96394e-21)
(-2.24565 -0.0304428 3.3643e-21)
(-2.1736 -0.0328184 -2.89234e-22)
(-2.09779 -0.0352085 -2.40036e-21)
(-2.01833 -0.0376142 5.72535e-21)
(-1.93536 -0.0400075 -2.50609e-20)
(-1.84903 -0.0423889 3.45289e-21)
(-1.75952 -0.0447318 6.24318e-20)
(-1.66701 -0.0470317 -2.13463e-20)
(-1.57173 -0.0492667 7.28519e-21)
(-1.47389 -0.0514334 -5.26185e-20)
(-1.37372 -0.0535152 -9.20253e-20)
(-1.27149 -0.0555124 1.0454e-19)
(-1.16743 -0.0574265 5.16854e-20)
(-1.0618 -0.0592586 -1.3546e-20)
(-0.954866 -0.0610127 2.69592e-19)
(-0.846864 -0.0627019 2.49014e-19)
(-0.738041 -0.0643361 -1.37584e-19)
(-0.628609 -0.0659369 -1.52318e-19)
(-0.518781 -0.0675059 -2.80649e-19)
(-0.408816 -0.0690267 -4.22919e-19)
(-0.298791 -0.0705149 -3.31679e-19)
(-0.189082 -0.072077 -5.62015e-19)
(-0.0789594 -0.0727566 2.78253e-19)
(0.0336066 -0.0714419 2.36909e-19)
(0.146399 -0.0688696 3.62561e-19)
(0.257699 -0.0660335 2.40825e-19)
(0.367162 -0.0631908 6.15916e-19)
(0.474353 -0.0603926 3.77364e-20)
(0.57901 -0.0576621 2.20032e-20)
(0.680922 -0.0549918 -3.50325e-19)
(0.779961 -0.0523876 5.08302e-19)
(0.875995 -0.0498678 -2.77759e-19)
(0.968968 -0.0474359 3.56077e-20)
(1.05883 -0.0450805 1.19018e-19)
(1.14553 -0.0427766 4.01991e-20)
(1.22912 -0.0405565 9.48627e-20)
(1.30958 -0.0384429 4.16607e-19)
(1.38694 -0.0364107 1.90638e-19)
(1.46122 -0.0344522 8.36111e-20)
(1.53248 -0.0325665 1.10033e-19)
(1.60076 -0.030758 2.88793e-19)
(1.66612 -0.0290201 -1.17513e-20)
(1.72858 -0.0273415 2.87802e-19)
(1.78817 -0.0257137 3.86197e-19)
(1.84487 -0.0241271 3.49369e-19)
(1.89865 -0.0225614 -1.18248e-20)
(1.94939 -0.0209895 2.8453e-20)
(1.99686 -0.0193597 -6.25136e-20)
(2.04061 -0.0175894 -7.28419e-19)
(2.07966 -0.0154803 3.35059e-19)
(2.1127 -0.0126332 2.29805e-19)
(2.13287 -0.0076111 -4.37675e-19)
(2.14169 0.00477531 -4.14712e-19)
(2.04953 0.0246001 6.25709e-19)
(0.0145431 -0.0570148 1.03497e-18)
(0.033751 -0.0702818 -3.20842e-19)
(0.0430278 -0.0623051 -8.67158e-20)
(0.0486509 -0.0497784 1.67783e-19)
(0.0502194 -0.0349396 3.22263e-20)
(0.0480237 -0.0190624 1.94117e-20)
(0.042547 -0.00307534 -1.84337e-20)
(0.0340496 0.0123987 -9.25611e-20)
(0.0226347 0.0267831 -6.55407e-21)
(0.00801313 0.039596 -1.0048e-19)
(-0.0099134 0.0506352 6.07104e-21)
(-0.0311906 0.0599485 -1.59035e-21)
(-0.0558311 0.0677714 3.95608e-20)
(-0.0838411 0.0744757 5.5609e-21)
(-0.115163 0.080473 -1.25979e-20)
(-0.149558 0.086134 -1.0322e-19)
(-0.186784 0.0917571 -2.1496e-20)
(-0.226745 0.0975423 8.93781e-20)
(-0.269355 0.103551 -9.90948e-20)
(-0.314477 0.109729 2.63488e-20)
(-0.361945 0.115933 2.28566e-21)
(-0.411549 0.121979 4.58605e-20)
(-0.463031 0.127679 5.04156e-20)
(-0.516087 0.13286 4.02673e-20)
(-0.570373 0.137357 4.9531e-20)
(-0.625522 0.141035 -2.65898e-20)
(-0.681166 0.143802 6.18341e-21)
(-0.736944 0.145614 7.37569e-21)
(-0.792523 0.146441 -2.67458e-20)
(-0.847599 0.146294 -1.77952e-20)
(-0.901913 0.145229 -2.75567e-20)
(-0.955253 0.143347 -8.33607e-21)
(-1.00746 0.140761 -6.01209e-20)
(-1.0584 0.137601 2.41977e-20)
(-1.10802 0.133989 -3.38422e-20)
(-1.15625 0.130049 3.96906e-20)
(-1.20308 0.125887 -3.72745e-20)
(-1.24851 0.121608 1.01149e-20)
(-1.29257 0.117293 2.53875e-20)
(-1.3353 0.113015 -1.96886e-20)
(-1.37675 0.108825 1.61746e-20)
(-1.41696 0.104768 -6.57122e-21)
(-1.45601 0.100866 -2.51039e-20)
(-1.49395 0.0971429 -7.36494e-20)
(-1.53085 0.0936035 -5.2391e-20)
(-1.56676 0.090255 6.14195e-22)
(-1.60175 0.0870909 -6.49023e-20)
(-1.63586 0.0841094 -1.76778e-20)
(-1.66915 0.0812977 6.24093e-20)
(-1.70166 0.0786492 9.55173e-20)
(-1.73343 0.0761475 2.25549e-20)
(-1.76451 0.0737842 -9.83803e-21)
(-1.79493 0.0715422 -1.04351e-20)
(-1.82472 0.0694137 -3.33927e-20)
(-1.8539 0.0673827 -2.57322e-20)
(-1.88251 0.0654432 -6.76264e-20)
(-1.91056 0.0635815 -7.97683e-20)
(-1.93806 0.0617938 -1.77004e-20)
(-1.96505 0.0600679 1.18437e-20)
(-1.99152 0.0584019 -6.06208e-20)
(-2.0175 0.0567862 4.65639e-20)
(-2.04299 0.0552209 -1.9836e-20)
(-2.068 0.0536987 -7.98897e-20)
(-2.09254 0.0522212 6.0453e-21)
(-2.11663 0.0507831 5.77088e-20)
(-2.14027 0.0493873 -2.21179e-20)
(-2.16346 0.0480304 2.44253e-21)
(-2.18623 0.0467163 -5.11819e-20)
(-2.20858 0.0454436 1.7561e-20)
(-2.23053 0.044216 -2.99006e-20)
(-2.25208 0.043033 5.33607e-22)
(-2.27326 0.0418983 -3.65348e-20)
(-2.29407 0.0408126 1.16193e-21)
(-2.31454 0.0397769 -2.1431e-20)
(-2.33468 0.0387914 2.82036e-20)
(-2.35451 0.0378562 -4.83296e-20)
(-2.37405 0.0369735 6.24569e-21)
(-2.3933 0.0361428 -4.80754e-20)
(-2.41229 0.0353634 1.87488e-21)
(-2.43103 0.0346311 3.72955e-20)
(-2.44954 0.0339471 7.2508e-21)
(-2.46781 0.0333068 -2.14656e-20)
(-2.48587 0.032708 -3.17966e-20)
(-2.5037 0.0321384 1.80178e-20)
(-2.52131 0.031594 5.02797e-20)
(-2.53869 0.0310638 -1.57253e-20)
(-2.55582 0.0305464 -5.76262e-22)
(-2.57267 0.0300307 -1.29553e-21)
(-2.58919 0.0295152 3.07367e-20)
(-2.60532 0.0289785 1.06933e-19)
(-2.62104 0.0283869 2.30688e-20)
(-2.63631 0.0277119 4.2633e-20)
(-2.65103 0.0269325 -9.17143e-20)
(-2.66512 0.0260334 -4.36074e-20)
(-2.67845 0.0249893 2.82004e-20)
(-2.69102 0.02378 5.67345e-20)
(-2.70279 0.0223788 -3.09551e-20)
(-2.71347 0.0208064 -1.23938e-20)
(-2.72299 0.0190847 -2.1189e-20)
(-2.73131 0.0171423 3.08507e-20)
(-2.73826 0.0149518 -4.27236e-20)
(-2.74382 0.012536 -3.19471e-20)
(-2.74792 0.00987288 -2.06028e-20)
(-2.75054 0.00701577 6.76344e-20)
(-2.7517 0.00401077 -7.63635e-21)
(-2.75122 0.00100014 4.75313e-21)
(-2.74854 -0.00199213 2.48603e-20)
(-2.7437 -0.00519244 5.3578e-20)
(-2.73632 -0.00852569 -7.27476e-21)
(-2.72606 -0.0119741 -2.05632e-20)
(-2.71305 -0.0155844 1.75743e-21)
(-2.69711 -0.0192985 -3.83838e-20)
(-2.67806 -0.0231537 4.16477e-20)
(-2.65566 -0.0271331 1.56517e-20)
(-2.62975 -0.0311746 1.21363e-20)
(-2.60043 -0.0353234 3.03198e-20)
(-2.5675 -0.0395162 3.62685e-20)
(-2.53073 -0.0437446 -1.87124e-20)
(-2.49005 -0.0479886 1.19983e-20)
(-2.44552 -0.0522553 1.70148e-20)
(-2.39703 -0.056584 1.99983e-20)
(-2.34452 -0.060883 -2.22023e-21)
(-2.28798 -0.0651323 -8.61677e-22)
(-2.22736 -0.0693137 -1.37789e-20)
(-2.16264 -0.0733856 -1.16814e-20)
(-2.09384 -0.0773469 -1.07429e-20)
(-2.02102 -0.0811655 8.81306e-21)
(-1.94425 -0.0848439 -9.50093e-22)
(-1.86362 -0.0883508 -1.53899e-21)
(-1.77927 -0.0916885 -2.15128e-22)
(-1.69132 -0.0948261 4.89566e-21)
(-1.59994 -0.0977588 1.03335e-20)
(-1.50531 -0.10046 6.87158e-21)
(-1.40763 -0.102929 -6.16388e-21)
(-1.30712 -0.105142 -7.60628e-21)
(-1.20401 -0.107101 -9.51218e-21)
(-1.09855 -0.108796 1.81821e-20)
(-0.990985 -0.110237 -1.12957e-19)
(-0.881588 -0.111423 1.29361e-21)
(-0.770622 -0.112368 9.21456e-20)
(-0.658349 -0.113077 -5.90976e-20)
(-0.545027 -0.113574 7.74202e-20)
(-0.430909 -0.11387 3.50095e-20)
(-0.316223 -0.113993 -7.02522e-20)
(-0.201211 -0.113991 -2.24331e-20)
(-0.0858093 -0.113924 -1.13886e-19)
(0.0300851 -0.113813 -6.88027e-20)
(0.1458 -0.11382 1.44409e-19)
(0.260203 -0.113425 2.24705e-19)
(0.372435 -0.111799 -2.99551e-19)
(0.482352 -0.109129 8.87662e-20)
(0.590254 -0.10595 1.69231e-20)
(0.696145 -0.102506 -4.66661e-19)
(0.799829 -0.0989111 1.11414e-20)
(0.901122 -0.0952287 6.83706e-21)
(0.999869 -0.0915031 -1.39704e-19)
(1.09595 -0.087765 1.72707e-19)
(1.18926 -0.0840456 2.38117e-19)
(1.27975 -0.0803655 2.41954e-19)
(1.36736 -0.076743 2.10073e-19)
(1.45206 -0.0731914 -3.05505e-19)
(1.53385 -0.0697289 3.81046e-20)
(1.6127 -0.0663555 -8.03926e-20)
(1.68866 -0.0630752 2.12743e-19)
(1.76174 -0.0598954 -6.35311e-20)
(1.83201 -0.0568248 2.53325e-19)
(1.89949 -0.053863 -2.48417e-19)
(1.96421 -0.0509943 -3.80208e-19)
(2.02622 -0.0482019 -5.72943e-19)
(2.08553 -0.0454741 -2.6708e-19)
(2.14212 -0.0427869 -1.19419e-19)
(2.19596 -0.0400992 5.68166e-20)
(2.24694 -0.0373465 3.43795e-20)
(2.29485 -0.0344215 -3.97185e-19)
(2.3393 -0.0311049 -3.68531e-19)
(2.37941 -0.0270217 5.078e-19)
(2.41449 -0.0211949 6.20815e-19)
(2.43959 -0.011394 5.82931e-19)
(2.46398 0.00894809 2.92718e-19)
(2.46068 0.0474911 -6.28746e-19)
(0.00767426 -0.097835 1.04863e-19)
(0.0173273 -0.0905196 3.59097e-19)
(0.0168601 -0.0678045 2.19398e-19)
(0.0137625 -0.0457669 -1.49982e-19)
(0.00738045 -0.0241843 3.63934e-20)
(-0.00175588 -0.00296828 -2.26142e-20)
(-0.0132217 0.0177038 -1.13832e-20)
(-0.0268736 0.0375961 9.99008e-20)
(-0.0427551 0.0564863 8.61017e-20)
(-0.0610008 0.0741403 7.66625e-20)
(-0.0817805 0.0903692 3.61674e-20)
(-0.10527 0.105114 3.55459e-20)
(-0.13162 0.118468 -1.15464e-19)
(-0.160921 0.130651 -7.20269e-20)
(-0.193173 0.141963 2.56237e-20)
(-0.228269 0.1527 -5.40601e-20)
(-0.266017 0.163077 5.14035e-20)
(-0.306182 0.173203 7.13511e-21)
(-0.348495 0.183077 6.98151e-20)
(-0.39267 0.192592 5.82807e-20)
(-0.438408 0.201568 -5.24673e-20)
(-0.485403 0.20979 -1.329e-19)
(-0.533347 0.217042 -2.23501e-20)
(-0.581936 0.223133 -1.33046e-19)
(-0.630879 0.227909 2.74106e-20)
(-0.679903 0.23127 3.97461e-20)
(-0.72877 0.233166 -1.47773e-20)
(-0.777255 0.233603 4.71302e-20)
(-0.825161 0.232642 2.37314e-20)
(-0.872345 0.230394 4.90246e-20)
(-0.918707 0.227002 -2.29859e-20)
(-0.964172 0.222636 -1.39403e-20)
(-1.00869 0.217472 6.79093e-21)
(-1.05222 0.21169 -8.02925e-21)
(-1.09474 0.205459 -1.16256e-20)
(-1.13626 0.198933 -8.32988e-22)
(-1.17676 0.192245 -4.18054e-20)
(-1.21627 0.185515 1.49528e-20)
(-1.2548 0.178839 -3.7192e-20)
(-1.29237 0.172295 -1.22078e-20)
(-1.32901 0.165943 1.00602e-20)
(-1.36474 0.159825 -9.61407e-21)
(-1.3996 0.153968 -1.87856e-20)
(-1.43361 0.148388 5.21956e-20)
(-1.46681 0.143093 5.78821e-20)
(-1.49924 0.13808 -3.87446e-20)
(-1.53092 0.133342 1.77165e-20)
(-1.56188 0.128868 -2.05161e-20)
(-1.59216 0.124643 -3.65712e-20)
(-1.62178 0.120651 -1.79879e-20)
(-1.65078 0.116872 -1.93387e-20)
(-1.67917 0.113291 3.64044e-20)
(-1.70698 0.109888 6.11306e-21)
(-1.73424 0.106646 2.87589e-20)
(-1.76096 0.10355 3.45511e-21)
(-1.78717 0.100585 4.23853e-21)
(-1.81287 0.0977378 1.71378e-20)
(-1.83808 0.0949964 2.66981e-20)
(-1.86281 0.09235 -4.67893e-21)
(-1.88707 0.0897905 8.81074e-20)
(-1.91087 0.0873098 6.40432e-20)
(-1.93423 0.084903 1.51955e-20)
(-1.95713 0.0825648 3.40875e-20)
(-1.97961 0.0802927 -7.95495e-20)
(-2.00165 0.0780842 1.16725e-20)
(-2.02327 0.0759388 4.67161e-20)
(-2.04448 0.0738563 -7.51855e-20)
(-2.06527 0.071838 -3.4113e-20)
(-2.08567 0.0698851 2.29856e-20)
(-2.10568 0.0679996 1.8039e-20)
(-2.12532 0.0661835 -3.82949e-20)
(-2.14458 0.0644388 6.61487e-20)
(-2.16349 0.0627677 7.70866e-21)
(-2.18205 0.0611706 2.37879e-20)
(-2.20029 0.0596487 -7.78735e-20)
(-2.21822 0.0582016 7.51781e-20)
(-2.23585 0.0568303 1.57365e-20)
(-2.25319 0.055533 -3.2334e-20)
(-2.27025 0.0543072 -5.86061e-20)
(-2.28706 0.0531474 -2.89402e-20)
(-2.30361 0.0520502 4.61828e-21)
(-2.31992 0.0510064 1.23626e-20)
(-2.33598 0.0500072 -5.79574e-21)
(-2.35181 0.0490375 -4.30757e-20)
(-2.3674 0.0480874 -1.17856e-20)
(-2.38273 0.0471414 -1.28636e-20)
(-2.39781 0.0461868 7.63399e-21)
(-2.41258 0.045205 -2.6349e-20)
(-2.42702 0.0441824 -3.76112e-20)
(-2.44108 0.0430915 -4.60017e-20)
(-2.45473 0.041897 1.46903e-20)
(-2.46794 0.0405649 -5.34894e-20)
(-2.48064 0.0390687 5.17126e-20)
(-2.49277 0.0373797 4.57227e-21)
(-2.50425 0.0354673 -1.20333e-20)
(-2.51503 0.0333007 -2.23547e-20)
(-2.52505 0.0309201 7.68244e-21)
(-2.53411 0.0283872 3.67468e-20)
(-2.54212 0.0255881 3.027e-20)
(-2.54904 0.0224725 1.32129e-20)
(-2.55475 0.0190983 1.60161e-20)
(-2.55916 0.0154561 8.03039e-21)
(-2.56215 0.0115348 7.3596e-21)
(-2.56358 0.0073669 -1.02117e-19)
(-2.56332 0.00295228 2.00763e-20)
(-2.56108 -0.00168801 1.819e-20)
(-2.5567 -0.00658481 -3.56414e-20)
(-2.55008 -0.0117935 3.00953e-20)
(-2.5409 -0.0171874 -1.00727e-20)
(-2.52904 -0.0228034 4.42994e-20)
(-2.51438 -0.0286972 3.23417e-20)
(-2.49679 -0.0347565 2.29359e-20)
(-2.47611 -0.0409936 -1.51998e-20)
(-2.45214 -0.0473951 1.82797e-20)
(-2.42474 -0.0539549 1.17146e-20)
(-2.39388 -0.0606618 -1.42733e-20)
(-2.35939 -0.0674403 -2.1306e-20)
(-2.32115 -0.074252 6.61624e-20)
(-2.27903 -0.0811162 9.78318e-21)
(-2.23308 -0.0879893 -2.20618e-20)
(-2.18317 -0.0948822 -5.42151e-20)
(-2.12928 -0.10173 -6.68662e-21)
(-2.07138 -0.108489 -4.78454e-22)
(-2.00942 -0.115111 -1.67051e-20)
(-1.94339 -0.121556 1.3551e-21)
(-1.87332 -0.127793 1.04895e-20)
(-1.79925 -0.133789 -2.39781e-20)
(-1.72127 -0.139519 5.94207e-21)
(-1.63947 -0.14495 1.25722e-21)
(-1.55398 -0.150058 -7.26505e-23)
(-1.46494 -0.154814 1.78813e-21)
(-1.37252 -0.159191 -9.05815e-21)
(-1.2769 -0.163161 -3.61248e-20)
(-1.1783 -0.166707 -4.62609e-21)
(-1.07694 -0.169806 2.90332e-20)
(-0.973066 -0.172449 -8.96421e-21)
(-0.866927 -0.174627 -1.02108e-20)
(-0.758788 -0.176345 3.38322e-20)
(-0.648921 -0.177609 4.87755e-20)
(-0.537597 -0.178433 -3.9829e-21)
(-0.425085 -0.178831 2.50279e-20)
(-0.311648 -0.178829 -1.86924e-19)
(-0.197547 -0.178459 -2.30683e-20)
(-0.0829493 -0.177779 -2.31479e-20)
(0.0319478 -0.176843 -4.15843e-20)
(0.146672 -0.175619 1.79789e-19)